
                                 *****************
                                 * O   R   C   A *
                                 *****************

                                            #,                                       
                                            ###                                      
                                            ####                                     
                                            #####                                    
                                            ######                                   
                                           ########,                                 
                                     ,,################,,,,,                         
                               ,,#################################,,                 
                          ,,##########################################,,             
                       ,#########################################, ''#####,          
                    ,#############################################,,   '####,        
                  ,##################################################,,,,####,       
                ,###########''''           ''''###############################       
              ,#####''   ,,,,##########,,,,          '''####'''          '####       
            ,##' ,,,,###########################,,,                        '##       
           ' ,,###''''                  '''############,,,                           
         ,,##''                                '''############,,,,        ,,,,,,###''
      ,#''                                            '''#######################'''  
     '                                                          ''''####''''         
             ,#######,   #######,   ,#######,      ##                                
            ,#'     '#,  ##    ##  ,#'     '#,    #''#        ,####,    ,#,          
            ##       ##  ##   ,#'  ##            #'  '#       #'       ,# #          
            ##       ##  #######   ##           ,######,      #####,      #          
            '#,     ,#'  ##    ##  '#,     ,#' ,#      #,     #,   #      #          
             '#######'   ##     ##  '#######'  #'      '#     '####' #    #          



                #########################################################
                #                        -***-                          #
                #          Department of theory and spectroscopy        #
                #                                                       #
                #                      Frank Neese                      #
                #                                                       #
                #     Directorship, Architecture, Infrastructure        #
                #                    SHARK, DRIVERS                     #
                #        Core code/Algorithms in most modules           #
                #                                                       #
                #        Max Planck Institute fuer Kohlenforschung      #
                #                Kaiser Wilhelm Platz 1                 #
                #                 D-45470 Muelheim/Ruhr                 #
                #                      Germany                          #
                #                                                       #
                #                  All rights reserved                  #
                #                        -***-                          #
                #########################################################


                         Program Version 6.1.1  -  RELEASE   -
                                (GIT: $487d211c$)
                          ($2025-11-21 10:33:24 +0100$)


 With contributions from (in alphabetic order):
[Max-Planck-Institut fuer Kohlenforschung]                               
  Daniel Aravena         : Magnetic Suceptibility                        
  Michael Atanasov       : Ab Initio Ligand Field Theory (pilot matlab implementation)
  Alexander A. Auer      : GIAO ZORA, VPT2 properties, NMR spectrum      
  Ute Becker             : All parallelization in ORCA, NUMFREQ, NUMCALC 
  Giovanni Bistoni       : ED, misc. LED, open-shell LED, HFLD           
  Dmytro Bykov           : pre 5.0 version of the SCF Hessian            
  Marcos Casanova-Páez   : Triplet and SCS-CIS(D). UHF-(DLPNO)-IP/EA/STEOM-CCSD. UHF-CVS-IP/STEOM-CCSD   
  Vijay G. Chilkuri      : MRCI spin determinant printing, contributions to CSF-ICE 
  Pauline Colinet        : FMM embedding                                 
  Dipayan Datta          : RHF DLPNO-CCSD density                        
  Achintya Kumar Dutta   : EOM-CC, STEOM-CC                              
  Nicolas Foglia         : Exact transition moments, OPA infrastructure, MCD improvements    
  Dmitry Ganyushin       : Spin-Orbit,Spin-Spin,Magnetic field MRCI      
  Miquel Garcia-Rates    : C-PCM and meta-GGA Hessian, CCSD/C-PCM, Gaussian charge scheme 
  Tiago L. C. Gouveia    : GS-ROHF, GS-ROCIS                             
  Yang Guo               : DLPNO-NEVPT2, F12-NEVPT2, CIM, IAO-localization        
  Andreas Hansen         : Spin unrestricted coupled pair/coupled cluster methods 
  Ingolf Harden          : AUTO-CI MPn and infrastructure                
  Benjamin Helmich-Paris : MC-RPA, TRAH-(SCF,CASSCF), AVAS, COSX integrals, SCF dyn. polar., MC-PDFT, srDFT 
  Lee Huntington         : MR-EOM, pCC                                   
  Robert Izsak           : Overlap fitted RIJCOSX, COSX-SCS-MP3, EOM     
  Riya Kayal             : Wick's Theorem for AUTO-CI, AUTO-CI UHF-CCSDT 
  Emily Kempfer          : AUTO-CI RHF CISDT and CCSDT, approximate NEVPT4
  Christian Kollmar      : KDIIS, OOCD, Brueckner-CCSD(T), CCSD density, CASPT2, CASPT2-K, improved NEVPT2 
  Axel Koslowski         : Symmetry handling                             
  Simone Kossmann        : meta-GGA functionals, TD-DFT gradient, OOMP2, (MP2 Hessian; deprecated post 5.0) 
  Lucas Lang             : DCDCAS, Hyperfine gauge corrections, ICE-SOC+SSC
  Marvin Lechner         : AUTO-CI (C++ implementation), FIC-MRCC        
  Spencer Leger          : CASSCF response                               
  Dagmar Lenk            : GEPOL surface, SMD, ORCA-2-JSON               
  Dimitrios Liakos       : Extrapolation schemes; Compound Job, Property file
  Dimitrios Manganas     : Further ROCIS development; embedding schemes. LFT, Crystal Embedding 
  Dimitrios Pantazis     : SARC Basis sets                               
  Anastasios Papadopoulos: AUTO-CI, single reference methods and gradients 
  Taras Petrenko         : pre 6.0 DFT Hessian and TD-DFT gradient,  ECA, NRVS 
  Petra Pikulova         : Analytic Raman intensities                    
  Peter Pinski           : DLPNO-MP2, DLPNO-MP2 Gradient                 
  Shashank Vittal Rao    : ES-AILFT, MagRelax                            
  Christoph Reimann      : Effective Core Potentials                     
  Marius Retegan         : Local ZFS, SOC                                
  Christoph Riplinger    : Optimizer, TS searches, QM/MM, DLPNO-CCSD(T), (RO)-DLPNO pert. Triples 
  Michael Roemelt        : Original ROCIS implementation, recursive CI coupling coefficients
  Masaaki Saitow         : Open-shell DLPNO-CCSD energy and density      
  Barbara Sandhoefer     : DKH picture change effects                    
  Yorick L. A. Schmerwitz: GMF and freeze-and-release deltaSCF, NEB S-IDPP initial path                    
  Kantharuban Sivalingam : CASSCF convergence/infrastructure, NEVPT2, NEVPT3, NEVPT4(SD), FIC-MRCI and CEPA variants
  Bernardo de Souza      : ESD, SOC TD-DFT                               
  Georgi L. Stoychev     : AutoAux, RI-MP2 NMR, DLPNO-MP2 response, X2C  
  Van Anh Tran           : RI-MP2 g-tensors                              
  Willem Van den Heuvel  : Paramagnetic NMR                              
  Zikuan Wang            : NOTCH, Electric field optimization            
  Frank Wennmohs         : Technical directorship and infrastructure     
  Hang Xu                : AUTO-CI-Response properties                   
                                                                         
[FACCTs GmbH]                                                            
  Markus Bursch, Nicolas Foglia, Miquel Garcia-Rates, Ingolf Harden, Hagen Neugebauer, Anastasios Papadopoulos, 
  Christoph Riplinger, Bernardo de Souza, Georgi L. Stoychev                                                    
                                                                 
  APM, various basis sets, CI-OPT, improved COSX, DLPNO-Multilevel,           
  DOCKER, DRACO, updates on ESD, Fragmentator, GOAT, IRC, LR-CPCM, L-BFGS, MBIS, meta-GGA TD-DFT gradient, ML-optimized integration grids, 
  MM, NACMEs, nearIR, NEB, NEB-TS, NL-DFT gradient (VV10), 2- and 3-layer-ONIOM, interface openCOSMO-RS, QMMM,   
  Crystal-QMMM, RESP, rigid body optimization, SF, symmetry and pop. for TD-DFT, various functionals, SOLVATOR                                   
                                                                         
[Other institutions]                                                     
  V. Asgeirsson          : NEB                                           
  Christoph Bannwarth    : sTDA-DFT, sTD-DFT, PBEh-3c, B97-3c, D3        
  Giovanni Bistoni       : ETS/NOCV, ADLD/ADEX, COVALED                  
  Martin Brehm           : Molecular dynamics                            
  Ronald Cardenas        : ETS/NOCV                                      
  Martina Colucci        : COVALED                                       
  Sebastian Ehlert       : rSCAN, r2SCAN, r2SCAN-3c, D4, dhf basis sets  
  Marvin Friede          : D4 for Fr, Ra, Ac-Lr                          
  Lars Goerigk           : TD-DFT with DH, B97 family of functionals     
  Stefan Grimme          : VdW corrections, initial TS optimization, DFT functionals, gCP, sTDA/sTD-DF 
  Waldemar Hujo          : DFT-NL                                        
  H. Jonsson             : NEB                                           
  Holger Kruse           : gCP                                           
  Marcel Mueller         : wB97X-3c, vDZP basis set                      
  Hagen Neugebauer       : wr2SCAN, Native XTB                           
  Gianluca Regni         : ADLD/ADEX                                     
  Tobias Risthaus        : pre 6.0 range-separated hybrid DFT and stability analysis
  Lukas Wittmann         : regularized MP2, r2SCAN double-hybrids, wr2SCAN        
                                                                         
We gratefully acknowledge several colleagues who have allowed us to      
interface, adapt or use parts of their codes:                            
  Ed Valeev, F. Pavosevic, A. Kumar             : LibInt (2-el integral package), F12 methods 
  Garnet Chan, S. Sharma, J. Yang, R. Olivares  : DMRG                   
  Ulf Ekstrom                                   : XCFun DFT Library      
  Mihaly Kallay                                 : mrcc  (arbitrary order and MRCC methods)
  Frank Weinhold                                : gennbo (NPA and NBO analysis)           
  Simon Mueller                                 : openCOSMO-RS                            
  Christopher J. Cramer and Donald G. Truhlar   : smd solvation model                     
  S Lehtola, MJT Oliveira, MAL Marques          : LibXC Library                           
  Liviu Ungur et al                             : ANISO software                          


 Your calculation uses the libint2 library for the computation of 2-el integrals
 For citations please refer to: http://libint.valeyev.net

 Your ORCA version has been built with support for libXC version: 7.0.0
 For citations please refer to: https://libxc.gitlab.io

 This ORCA versions uses:
   CBLAS   interface :  Fast vector & matrix operations
   LAPACKE interface :  Fast linear algebra routines
   SCALAPACK package :  Parallel linear algebra routines
   Shared memory     :  Shared parallel matrices
   BLAS/LAPACK       :  OpenBLAS 0.3.29  USE64BITINT DYNAMIC_ARCH NO_AFFINITY Cooperlake SINGLE_THREADED
        Core in use  :  Cooperlake
   Copyright (c) 2011-2014, The OpenBLAS Project


  ***********************************
  * Starting time: Tue Jul 21 13:06:22 2026
  * Host name:     c1-3
  * Process ID:    1356270
  * Working dir.:  /cluster/projects/nn14654k/ylvaos/TPhP_bsse/orca/opt1_bp86_pme3
  ***********************************

================================================================================



################################################################################


                                COMPOUND JOB MainJOB 
Basename: 15h_pme3_Compound_0

################################################################################

================================================================================
                                       INPUT FILE
================================================================================
NAME = 15h_pme3_Compound_0.inp
|  1> #
|  2>  
|  3> #
|  4>  
|  5> 
|  6>                          ****END OF INPUT****
================================================================================
================================================================================



################################################################################


                                COMPOUND JOB  1 
Basename: 15h_pme3_Compound_1
NOTE: please remember that MaxCore and PAL settings will be ignored.

################################################################################

================================================================================
                                       INPUT FILE
================================================================================
NAME = 15h_pme3_Compound_1.inp
|  1>   ! BP86 def2-SVP VeryTightSCF defgrid3 NOAUTOSTART
|  2>   %id "def2svp"
|  3>   * xyzfile 0 1 opt1_pme3/15h_pme3_opt.xyz
|  4> 
|  5>                          ****END OF INPUT****
================================================================================


***************************************
The coordinates will be read from file: opt1_pme3/15h_pme3_opt.xyz
***************************************


Warning: RI is on but no J-basis has been assigned. Assigning Def2/J (nothing to worry about!)
================================================================================

cite the ECPs for Ru [Def2-ECP] as follows:
Ce-Yb(ecp-28): M. Dolg, H. Stoll, H.Preuss, J. Chem. Phys., 1989, 90, 1730-1734.
Y-Cd(ecp-28), Hf-Hg(ecp-46): D. Andrae,U. Haeussermann, M. Dolg, H. Stoll, H. Preuss, Theor. Chim. Acta, 1990, 77, 123-141.
In-Sb(ecp-28), Tl-Bi(ecp-46): B. Metz, H. Stoll, M. Dolg, J. Chem. Phys., 2000, 113, 2563-2569.
Te-Xe(ecp-28), Po-Rn(ecp-46): K. A. Peterson, D. Figgen, E. Goll, H. Stoll, M. Dolg, J. Chem. Phys., 2003, 119, 11113-11123.
Rb(ecp-28), Cs(ecp-46): T. Leininger, A. Nicklass, W. Kuechle, H. Stoll, M. Dolg, A. Bergner, Chem. Phys. Lett., 1996, 255, 274-280.
Sr(ecp-28), Ba(ecp-46): M. Kaupp, P. V. Schleyer, H. Stoll and H. Preuss, J. Chem. Phys., 1991, 94, 1360-1366.
La(ecp-46): M. Dolg, H. Stoll, A. Savin, H. Preuss, Theor. Chim. Acta, 1989, 75, 173-194.
Lu(ecp-28): X. Cao, M. Dolg, J. Chem. Phys., 2001, 115, 7348-7355.

ECP parameters for Ru [Def2-ECP] have been obtained from:
TURBOMOLE (7.0.2)

----- Orbital basis set information -----
Your calculation utilizes the basis: def2-SVP
   F. Weigend and R. Ahlrichs, Phys. Chem. Chem. Phys. 7, 3297 (2005).

----- AuxJ basis set information -----
Your calculation utilizes the auxiliary basis: def2/J
   H-Rn: F. Weigend, Phys. Chem. Chem. Phys. 8, 1057 (2006).
   Fr-Lr: K. Eichkorn, F. Weigend, O. Treutler, R. Ahlrichs; Theor. Chem. Acc. 97, 119 (1997).

================================================================================
                                        WARNINGS
                       Please study these warnings very carefully!
================================================================================



                       ****************************
                       * Single Point Calculation *
                       ****************************

---------------------------------
CARTESIAN COORDINATES (ANGSTROEM)
---------------------------------
  Ru    -2.707751    1.502763   -0.187119
  P     -3.385046    3.679461   -0.162075
  P     -1.620555   -2.200163    2.297355
  H     -2.691180   -0.007135    0.549875
  H     -2.387514    1.777051    1.313817
  H     -2.212916   -0.163193   -0.186733
  H     -4.211276    1.202432    0.093126
  C     -4.479663    4.051464    1.256758
  H     -5.359556    3.393903    1.208928
  H     -4.799691    5.105803    1.258225
  H     -3.941015    3.824063    2.187960
  C     -2.101846    4.988492   -0.002793
  H     -2.546941    5.993797    0.072318
  H     -1.428403    4.959845   -0.873510
  H     -1.501795    4.789547    0.898260
  C     -4.371203    4.305228   -1.583268
  H     -5.255354    3.663046   -1.714656
  H     -3.768078    4.250403   -2.502838
  H     -4.697098    5.346857   -1.432768
  C     -0.177658   -1.043059    2.332326
  H     -0.302170   -0.267455    1.560707
  H     -0.147725   -0.532467    3.308267
  H      0.781004   -1.566521    2.176723
  C     -1.224494   -3.152573    0.761146
  H     -1.904260   -4.016340    0.678251
  H     -0.182827   -3.515586    0.744644
  H     -1.395216   -2.518468   -0.122317
  C     -1.044965   -3.428597    3.557267
  H     -0.022967   -3.794143    3.359414
  H     -1.069341   -2.968334    4.557612
  H     -1.732693   -4.289412    3.571146

----------------------------
CARTESIAN COORDINATES (A.U.)
----------------------------
  NO LB      ZA    FRAG     MASS         X           Y           Z
   0 Ru   16.0000*   0   101.070   -5.116908    2.839810   -0.353604
   1 P    15.0000    0    30.974   -6.396810    6.953173   -0.306277
   2 P    15.0000    0    30.974   -3.062404   -4.157706    4.341372
   3 H     1.0000    0     1.008   -5.085593   -0.013483    1.039114
   4 H     1.0000    0     1.008   -4.511748    3.358139    2.482755
   5 H     1.0000    0     1.008   -4.181804   -0.308389   -0.352875
   6 H     1.0000    0     1.008   -7.958157    2.272267    0.175983
   7 C     6.0000    0    12.011   -8.465336    7.656158    2.374928
   8 H     1.0000    0     1.008  -10.128093    6.413547    2.284543
   9 H     1.0000    0     1.008   -9.070102    9.648570    2.377701
  10 H     1.0000    0     1.008   -7.447439    7.226431    4.134645
  11 C     6.0000    0    12.011   -3.971913    9.426884   -0.005277
  12 H     1.0000    0     1.008   -4.813021   11.326635    0.136662
  13 H     1.0000    0     1.008   -2.699291    9.372749   -1.650694
  14 H     1.0000    0     1.008   -2.837981    9.050932    1.697466
  15 C     6.0000    0    12.011   -8.260376    8.135703   -2.991942
  16 H     1.0000    0     1.008   -9.931180    6.922154   -3.240230
  17 H     1.0000    0     1.008   -7.120635    8.032098   -4.729678
  18 H     1.0000    0     1.008   -8.876229   10.104096   -2.707540
  19 C     6.0000    0    12.011   -0.335724   -1.971096    4.407457
  20 H     1.0000    0     1.008   -0.571018   -0.505416    2.949308
  21 H     1.0000    0     1.008   -0.279160   -1.006218    6.251719
  22 H     1.0000    0     1.008    1.475884   -2.960297    4.113410
  23 C     6.0000    0    12.011   -2.313958   -5.957500    1.438357
  24 H     1.0000    0     1.008   -3.598530   -7.589782    1.281708
  25 H     1.0000    0     1.008   -0.345493   -6.643495    1.407174
  26 H     1.0000    0     1.008   -2.636577   -4.759214   -0.231146
  27 C     6.0000    0    12.011   -1.974697   -6.479110    6.722261
  28 H     1.0000    0     1.008   -0.043401   -7.169891    6.348372
  29 H     1.0000    0     1.008   -2.020762   -5.609338    8.612639
  30 H     1.0000    0     1.008   -3.274315   -8.105814    6.748489
* core charge reduced due to ECP

--------------------------------
INTERNAL COORDINATES (ANGSTROEM)
--------------------------------
 Ru     0   0   0     0.000000000000     0.00000000     0.00000000
 P      1   0   0     2.279774122000     0.00000000     0.00000000
 P      1   2   0     4.589800303046   146.58685106     0.00000000
 H      1   2   3     1.680245700936   148.88137067    28.48582907
 H      1   2   3     1.559036606363    83.25033288   344.10742079
 H      4   1   2     0.892010679181    78.48019873   179.35894536
 H      1   2   3     1.558628291282    83.99682515    78.24365313
 C      2   1   3     1.830207551742   112.35026945   327.89109314
 H      8   2   1     1.099493764080   108.86534407   301.45513942
 H      8   2   1     1.101839607377   111.66876417   179.97065560
 H      8   2   1     1.099541044000   108.75454026    58.62474100
 C      2   1   3     1.839982629760   118.23131412    86.10745393
 H     12   2   1     1.101993485535   111.91539770   184.17920926
 H     12   2   1     1.101133102451   109.85010021    63.02904784
 H     12   2   1     1.100698403160   108.81219152   304.97693324
 C      2   1   3     1.839532380793   118.39688357   209.24721833
 H     16   2   1     1.100628873151   108.92889042    55.27331596
 H     16   2   1     1.101078991592   109.55061687   297.17512532
 H     16   2   1     1.101747839305   112.00296756   176.28493462
 C      3   1   2     1.849882065746    71.96212816   281.81757672
 H     20   3   1     1.101118303546   109.82464398   346.38614604
 H     20   3   1     1.101844748897   109.13464764   103.75068212
 H     20   3   1     1.103293865940   112.22877154   224.35099387
 C      3   1   2     1.850374809585    90.94877523   181.78840264
 H     24   3   1     1.102291475827   109.49778542   242.17909238
 H     24   3   1     1.103231483796   112.57425669   120.93872462
 H     24   3   1     1.100792039065   109.67063170   359.52490219
 C      3   1   2     1.851414077895   167.77101397   326.60268785
 H     28   3  20     1.103290265280   112.69244943   309.02687838
 H     28   3  20     1.101420171022   109.50651323    70.23865938
 H     28   3  20     1.101891451131   109.44358660   187.87917642

---------------------------
INTERNAL COORDINATES (A.U.)
---------------------------
 Ru     0   0   0     0.000000000000     0.00000000     0.00000000
 P      1   0   0     4.308148737781     0.00000000     0.00000000
 P      1   2   0     8.673465582147   146.58685106     0.00000000
 H      1   2   3     3.175204212468   148.88137067    28.48582907
 H      1   2   3     2.946152218784    83.25033288   344.10742079
 H      4   1   2     1.685655892186    78.48019873   179.35894536
 H      1   2   3     2.945380615106    83.99682515    78.24365313
 C      2   1   3     3.458591041028   112.35026945   327.89109314
 H      8   2   1     2.077742100066   108.86534407   301.45513942
 H      8   2   1     2.082175101450   111.66876417   179.97065560
 H      8   2   1     2.077831446166   108.75454026    58.62474100
 C      2   1   3     3.477063261418   118.23131412    86.10745393
 H     12   2   1     2.082465889027   111.91539770   184.17920926
 H     12   2   1     2.080840000628   109.85010021    63.02904784
 H     12   2   1     2.080018538016   108.81219152   304.97693324
 C      2   1   3     3.476212414178   118.39688357   209.24721833
 H     16   2   1     2.079887145341   108.92889042    55.27331596
 H     16   2   1     2.080737745924   109.55061687   297.17512532
 H     16   2   1     2.082001684926   112.00296756   176.28493462
 C      3   1   2     3.495770484313    71.96212816   281.81757672
 H     20   3   1     2.080812034751   109.82464398   346.38614604
 H     20   3   1     2.082184817514   109.13464764   103.75068212
 H     20   3   1     2.084923251863   112.22877154   224.35099387
 C      3   1   2     3.496701635222    90.94877523   181.78840264
 H     24   3   1     2.083029009068   109.49778542   242.17909238
 H     24   3   1     2.084805366694   112.57425669   120.93872462
 H     24   3   1     2.080195484234   109.67063170   359.52490219
 C      3   1   2     3.498665567708   167.77101397   326.60268785
 H     28   3  20     2.084916447600   112.69244943   309.02687838
 H     28   3  20     2.081382481609   109.50651323    70.23865938
 H     28   3  20     2.082273071948   109.44358660   187.87917642

---------------------
BASIS SET INFORMATION
---------------------
There are 4 groups of distinct atoms

 Group   1 Type Ru  : 7s6p5d1f contracted to 5s3p2d1f pattern {31111/411/41/1}
 Group   2 Type P   : 10s7p1d contracted to 4s3p1d pattern {5311/511/1}
 Group   3 Type H   : 4s1p contracted to 2s1p pattern {31/1}
 Group   4 Type C   : 7s4p1d contracted to 3s2p1d pattern {511/31/1}

Atom   0Ru   basis set group =>   1
Atom   1P    basis set group =>   2
Atom   2P    basis set group =>   2
Atom   3H    basis set group =>   3
Atom   4H    basis set group =>   3
Atom   5H    basis set group =>   3
Atom   6H    basis set group =>   3
Atom   7C    basis set group =>   4
Atom   8H    basis set group =>   3
Atom   9H    basis set group =>   3
Atom  10H    basis set group =>   3
Atom  11C    basis set group =>   4
Atom  12H    basis set group =>   3
Atom  13H    basis set group =>   3
Atom  14H    basis set group =>   3
Atom  15C    basis set group =>   4
Atom  16H    basis set group =>   3
Atom  17H    basis set group =>   3
Atom  18H    basis set group =>   3
Atom  19C    basis set group =>   4
Atom  20H    basis set group =>   3
Atom  21H    basis set group =>   3
Atom  22H    basis set group =>   3
Atom  23C    basis set group =>   4
Atom  24H    basis set group =>   3
Atom  25H    basis set group =>   3
Atom  26H    basis set group =>   3
Atom  27C    basis set group =>   4
Atom  28H    basis set group =>   3
Atom  29H    basis set group =>   3
Atom  30H    basis set group =>   3
---------------------------------
AUXILIARY/J BASIS SET INFORMATION
---------------------------------
There are 4 groups of distinct atoms

 Group   1 Type Ru  : 11s5p5d3f3g contracted to 8s5p5d2f3g pattern {41111111/11111/11111/21/111}
 Group   2 Type P   : 14s5p5d2f1g contracted to 8s4p3d1f1g pattern {71111111/2111/311/2/1}
 Group   3 Type H   : 5s2p1d contracted to 3s1p1d pattern {311/2/1}
 Group   4 Type C   : 12s5p4d2f1g contracted to 6s4p3d1f1g pattern {711111/2111/211/2/1}

Atom   0Ru   basis set group =>   1
Atom   1P    basis set group =>   2
Atom   2P    basis set group =>   2
Atom   3H    basis set group =>   3
Atom   4H    basis set group =>   3
Atom   5H    basis set group =>   3
Atom   6H    basis set group =>   3
Atom   7C    basis set group =>   4
Atom   8H    basis set group =>   3
Atom   9H    basis set group =>   3
Atom  10H    basis set group =>   3
Atom  11C    basis set group =>   4
Atom  12H    basis set group =>   3
Atom  13H    basis set group =>   3
Atom  14H    basis set group =>   3
Atom  15C    basis set group =>   4
Atom  16H    basis set group =>   3
Atom  17H    basis set group =>   3
Atom  18H    basis set group =>   3
Atom  19C    basis set group =>   4
Atom  20H    basis set group =>   3
Atom  21H    basis set group =>   3
Atom  22H    basis set group =>   3
Atom  23C    basis set group =>   4
Atom  24H    basis set group =>   3
Atom  25H    basis set group =>   3
Atom  26H    basis set group =>   3
Atom  27C    basis set group =>   4
Atom  28H    basis set group =>   3
Atom  29H    basis set group =>   3
Atom  30H    basis set group =>   3
-------------------------
ECP PARAMETER INFORMATION
-------------------------

 Group 1, Type Ru ECP Def2-ECP (replacing 28 core electrons, lmax=3)

Atom   0Ru   ECP group =>   1

------------------------------------------------------------------------------
                             ORCA STARTUP CALCULATIONS
                           -- RI-GTO INTEGRALS CHOSEN --
------------------------------------------------------------------------------
------------------------------------------------------------------------------
                   ___                                                        
                  /   \      - P O W E R E D   B Y -                         
                 /     \                                                     
                 |  |  |   _    _      __       _____    __    __             
                 |  |  |  | |  | |    /  \     |  _  \  |  |  /  |          
                  \  \/   | |  | |   /    \    | | | |  |  | /  /          
                 / \  \   | |__| |  /  /\  \   | |_| |  |  |/  /          
                |  |  |   |  __  | /  /__\  \  |    /   |      \           
                |  |  |   | |  | | |   __   |  |    \   |  |\   \          
                \     /   | |  | | |  |  |  |  | |\  \  |  | \   \       
                 \___/    |_|  |_| |__|  |__|  |_| \__\ |__|  \__/        
                                                                              
                      - O R C A' S   B I G   F R I E N D -                    
                                      &                                       
                       - I N T E G R A L  F E E D E R -                       
                                                                              
 v1 FN, 2020, v2 2021, v3 2022-2024                                           
------------------------------------------------------------------------------


----------------------
SHARK INTEGRAL PACKAGE
----------------------

Number of atoms                             ...     31
Number of basis functions                   ...    261
Number of shells                            ...    129
Maximum angular momentum                    ...      3
Integral batch strategy                     ... SHARK/LIBINT Hybrid
RI-J (if used) integral strategy            ... SPLIT-RIJ (Revised 2003 algorithm where possible)
Printlevel                                  ...      1
Contraction scheme used                     ... SEGMENTED contraction
Prescreening option                         ... SCHWARTZ
   Thresh                                   ... 1.000e-12
   Tcut                                     ... 1.000e-14
   Tpresel                                  ... 1.000e-14 
Coulomb Range Separation                    ... NOT USED
Exchange Range Separation                   ... NOT USED
Multipole approximations                    ... NOT USED
Finite Nucleus Model                        ... NOT USED
CABS basis                                  ... NOT available
Auxiliary Coulomb fitting basis             ... AVAILABLE
   # of basis functions in Aux-J            ...    727
   # of shells in Aux-J                     ...    257
   Maximum angular momentum in Aux-J        ...      4
Auxiliary J/K fitting basis                 ... NOT available
Auxiliary Correlation fitting basis         ... NOT available
Auxiliary 'external' fitting basis          ... NOT available

Checking pre-screening integrals            ... done (  0.0 sec) Dimension = 129
   => SHARK Basis and OBASIS are compatible. Storing Pre-screening
Shell pair information
Shell pair cut-off parameter TPreSel        ...   1.0e-14
Total number of shell pairs                 ...      8385
Shell pairs after pre-screening             ...      6621
Total number of primitive shell pairs       ...     28408
Primitive shell pairs kept                  ...     15747
          la=0 lb=0:   2365 shell pairs
          la=1 lb=0:   2521 shell pairs
          la=1 lb=1:    687 shell pairs
          la=2 lb=0:    589 shell pairs
          la=2 lb=1:    309 shell pairs
          la=2 lb=2:     39 shell pairs
          la=3 lb=0:     66 shell pairs
          la=3 lb=1:     35 shell pairs
          la=3 lb=2:      9 shell pairs
          la=3 lb=3:      1 shell pairs

Checking whether 4 symmetric matrices of dimension 261 fit in memory
:Max Core in MB      =   4096.00
 MB in use           =     11.61
 MB left             =   4084.39
 MB needed           =      1.04
 Data fit in memory  = YES
Calculating RI/J V-Matrix + Cholesky decomp.... done (  0.1 sec)
Calculating Nuclear repulsion               ... done (  0.0 sec) ENN=    735.780454742340 Eh

Diagonalization of the overlap matrix:
Smallest eigenvalue                        ... 2.208e-03
Time for diagonalization                   ...    0.015 sec
Threshold for overlap eigenvalues          ... 1.000e-07
Number of eigenvalues below threshold      ... 0
Time for construction of square roots      ...    0.020 sec
Total time needed                          ...    0.037 sec

-------------------
DFT GRID GENERATION
-------------------

General Integration Accuracy     IntAcc      ... 4.959
Radial Grid Type                 RadialGrid  ... OptM3 with GC (2021)
Angular Grid (max. ang.)         AngularGrid ... 6 (Lebedev-590)
Angular grid pruning method      GridPruning ... 4 (adaptive)
Weight generation scheme         WeightScheme... mBecke (2022)
Basis function cutoff            BFCut       ... 1.0000e-12
Integration weight cutoff        WCut        ... 1.0000e-14
Partially contracted basis set               ... off
Rotationally invariant grid construction     ... off
Angular grids for H and He will be reduced by one unit

Total number of grid points                  ...   330249
Total number of batches                      ...     5176
Average number of points per batch           ...       63
Average number of grid points per atom       ...    10653
Grids setup in   3.8 sec
Initializing property integral containers    ... done (  0.0 sec)

SHARK setup successfully completed in   4.6 seconds

Maximum memory used throughout the entire STARTUP-calculation: 111.6 MB
-------------------------------------------------------------------------------
                                 ORCA GUESS
                   Start orbitals & Density for SCF / CASSCF
-------------------------------------------------------------------------------

------------
SCF SETTINGS
------------
Hamiltonian:
 Density Functional     Method          .... DFT(GTOs)
 Exchange Functional    Exchange        .... B88
   X-Alpha parameter    XAlpha          ....  0.666667
   Becke's b parameter  XBeta           ....  0.004200
 Correlation Functional Correlation     .... P86
 LDA part of GGA corr.  LDAOpt          .... PW91-LDA
 Gradients option       PostSCFGGA      .... off
   NL short-range parameter             ....  4.400000
 RI-approximation to the Coulomb term is turned on
   Number of AuxJ basis functions       .... 727


General Settings:
 Integral files         IntName         .... 15h_pme3_Compound_1
 Hartree-Fock type      HFTyp           .... RHF
 Total Charge           Charge          ....    0
 Multiplicity           Mult            ....    1
 Number of Electrons    NEL             ....  104
 Basis Dimension        Dim             ....  261
 Nuclear Repulsion      ENuc            ....    735.7804547423 Eh

Convergence Acceleration:
 AO-DIIS                CNVDIIS         .... on
   Start iteration      DIISMaxIt       ....    12
   Startup error        DIISStart       ....  0.200000
   # of expansion vecs  DIISMaxEq       ....     5
   Bias factor          DIISBfac        ....   1.050
   Max. coefficient     DIISMaxC        ....  10.000
 MO-DIIS                CNVKDIIS        .... off
 Trust-Rad. Augm. Hess. CNVTRAH         .... auto
   Auto Start mean grad. ratio tolernc. ....  1.125000
   Auto Start start iteration           ....    50
   Auto Start num. interpolation iter.  ....    10
   Max. Number of Micro iterations      ....    24
   Max. Number of Macro iterations      .... Maxiter - #DIIS iter
   Number of Davidson start vectors     ....     2
   Converg. threshold    (grad. norm)   ....   2.000e-06
   Grad. Scal. Fac. for Micro threshold ....   0.100
   Minimum threshold for Micro iter.    ....   1.000e-02
   NR start threshold (gradient norm)   ....   1.000e-04
   Initial trust radius                 ....   0.400
   Minimum AH scaling param. (alpha)    ....   1.000
   Maximum AH scaling param. (alpha)    .... 1000.000
   Quad. conv. algorithm                .... NR
   White noise on init. David. guess    .... on
   Maximum white noise                  ....   0.010
   Pseudo random numbers                .... off
   Inactive MOs                         .... canonical
   Orbital update algorithm             .... Taylor
   Preconditioner                       .... Diag
   Full preconditioner red. dimension   ....   250
 SOSCF                 CNVSOSCF           .... on
   Start iteration     SOSCFMaxIt         ....   150
   Startup grad/error  SOSCFStart         ....  0.003300
   Hessian update      SOSCFHessUp        .... L-BFGS
   Autom. constraints  SOSCFAutoConstrain .... off
 Level Shifting         CNVShift        .... on
   Level shift para.    LevelShift      ....    0.2500
   Turn off err/grad.   ShiftErr        ....    0.0010
 Zerner damping         CNVZerner       .... off
 Static damping         CNVDamp         .... on
   Fraction old density DampFac         ....    0.7000
   Max. Damping (<1)    DampMax         ....    0.9800
   Min. Damping (>=0)   DampMin         ....    0.0000
   Turn off err/grad.   DampErr         ....    0.1000

SCF Procedure:
 Maximum # iterations   MaxIter         ....   125
 SCF integral mode      SCFMode         .... Direct
   Integral package                     .... SHARK and LIBINT hybrid scheme
 Reset frequency        DirectResetFreq ....    20
 Integral Threshold     Thresh          ....  1.000e-12 Eh
 Primitive CutOff       TCut            ....  1.000e-14 Eh

Convergence Tolerance:
 Convergence Check Mode ConvCheckMode   .... Total+1el-Energy
 Convergence forced     ConvForced      .... 0
 Energy Change          TolE            ....  1.000e-09 Eh
 1-El. energy change                    ....  1.000e-06 Eh
 Orbital Gradient       TolG            ....  2.000e-06
 Orbital Rotation angle TolX            ....  2.000e-06
 DIIS Error             TolErr          ....  1.000e-08

------------------------------
INITIAL GUESS: MODEL POTENTIAL
------------------------------
Loading Hartree-Fock densities                     ... done
Atomic calculation to generate a density for atom 0 (Ru with ECP)
  Multiplicity assumed   :    5
  Atomic configuration   : 1s2 2s2 2p6 3s2 3p6 4s2 3d10 4p6 5s2 4d6 
  Number of open shells  : 1
  Command: /cluster/projects/nn14654k/ylvaos/orca_6_1_1_linux_x86-64_shared_openmpi418/orca 15h_pme3_Compound_1_atom44.inp "" > 15h_pme3_Compound_1_atom44.out
Returned from the atomic calculation with res=0
Calculating cut-offs                               ... done
Initializing the effective Hamiltonian             ... done
Setting up the integral package (SHARK)            ... done
Starting the Coulomb interaction                   ... done (   0.2 sec)
Making the grid                                    ... done (   0.2 sec)
Mapping shells                                     ... done
Starting the XC term evaluation                    ... done (   0.2 sec)
  promolecular density results
     # of electrons  =    131.989316135
     EX              =   -211.941403463
     EC              =     -5.910167270
     EX+EC           =   -217.851570733
Transforming the Hamiltonian                       ... done (   0.0 sec)
Diagonalizing the Hamiltonian                      ... done (   0.0 sec)
Back transforming the eigenvectors                 ... done (   0.0 sec)
Now organizing SCF variables                       ... done
                      ------------------
                      INITIAL GUESS DONE (   2.3 sec)
                      ------------------
             **** ENERGY FILE WAS UPDATED (15h_pme3_Compound_1.en.tmp) ****
Finished Guess after   2.4 sec
Maximum memory used throughout the entire GUESS-calculation: 20.2 MB

-------------------------------------------------------------------------------------------
                                      ORCA LEAN-SCF
                              memory conserving SCF solver
-------------------------------------------------------------------------------------------

----------------------------------------D-I-I-S--------------------------------------------
Iteration    Energy (Eh)           Delta-E    RMSDP     MaxDP     DIISErr   Damp  Time(sec)
-------------------------------------------------------------------------------------------
               ***  Starting incremental Fock matrix formation  ***
    1    -1018.8905662005861359     0.00e+00  2.79e-03  8.58e-02  4.81e-01  0.700   2.3
Warning: op=0 Small HOMO/LUMO gap (   0.046) - skipping pre-diagonalization
         Will do a full diagonalization
    2    -1019.0743258399365914    -1.84e-01  1.96e-03  4.65e-02  3.25e-01  0.700   1.8
    3    -1019.1383113516567391    -6.40e-02  9.43e-04  2.35e-02  2.23e-01  0.700   1.8
                               ***Turning on AO-DIIS***
    4    -1019.1724248391340097    -3.41e-02  4.12e-04  1.59e-02  1.55e-01  0.700   1.7
    5    -1019.1982817336181597    -2.59e-02  2.17e-04  9.88e-03  1.08e-01  0.700   1.7
    6    -1019.2166285658813649    -1.83e-02  1.40e-04  6.86e-03  7.56e-02  0.700   1.6
    7    -1019.2294613128353831    -1.28e-02  3.31e-04  1.89e-02  5.32e-02  0.000   1.6
                              *** Initializing SOSCF ***
---------------------------------------S-O-S-C-F--------------------------------------
Iteration    Energy (Eh)           Delta-E    RMSDP     MaxDP     MaxGrad    Time(sec)
--------------------------------------------------------------------------------------
    8    -1019.2592623149118936    -2.98e-02  6.07e-05  2.09e-03  1.19e-03     1.6
               *** Restarting incremental Fock matrix formation ***
    9    -1019.2592682015845185    -5.89e-06  1.28e-04  6.93e-03  7.67e-04     2.0
   10    -1019.2591458369615793     1.22e-04  1.03e-04  5.59e-03  3.20e-03     1.6
   11    -1019.2592801936411888    -1.34e-04  2.73e-05  8.76e-04  1.36e-04     1.6
   12    -1019.2592777224388101     2.47e-06  1.69e-05  5.61e-04  2.25e-04     1.5
   13    -1019.2592818652722144    -4.14e-06  2.77e-06  1.07e-04  1.23e-05     1.5
   14    -1019.2592818523307869     1.29e-08  1.67e-06  7.58e-05  2.13e-05     1.4
   15    -1019.2592818746172725    -2.23e-08  3.81e-07  1.19e-05  1.72e-06     1.4
   16    -1019.2592818744592478     1.58e-10  2.03e-07  6.19e-06  2.28e-06     1.5
                 **** Energy Check signals convergence ****

               *****************************************************
               *                     SUCCESS                       *
               *           SCF CONVERGED AFTER  16 CYCLES          *
               *****************************************************

             **** ENERGY FILE WAS UPDATED (15h_pme3_Compound_1.en.tmp) ****

----------------
TOTAL SCF ENERGY
----------------

Total Energy       :      -1019.25928187486966 Eh          -27735.45510 eV

Components:
Nuclear Repulsion  :        735.78045474234000 Eh           20021.60405 eV
Electronic Energy  :      -1755.03973661720966 Eh          -47757.05916 eV
One Electron Energy:      -2896.54159128529500 Eh          -78818.90377 eV
Two Electron Energy:       1141.50185466808534 Eh           31061.84462 eV

Virial components:
Potential Energy   :      -1972.04842314268967 Eh          -53662.16573 eV
Kinetic Energy     :        952.78914126782001 Eh           25926.71062 eV
Virial Ratio       :          2.06976374701185

DFT components:
N(Alpha)           :       52.000022367666 electrons
N(Beta)            :       52.000022367666 electrons
N(Total)           :      104.000044735332 electrons
E(X)               :      -93.480356818083 Eh       
E(C)               :       -4.020067809526 Eh       
E(XC)              :      -97.500424627609 Eh       

---------------
SCF CONVERGENCE
---------------

  Last Energy change         ...   -1.5802e-10  Tolerance :   1.0000e-09
  Last MAX-Density change    ...    6.1892e-06  Tolerance :   1.0000e-08
  Last RMS-Density change    ...    2.0315e-07  Tolerance :   1.0000e-09
  Last DIIS Error            ...    1.1912e-03  Tolerance :   1.0000e-08
  Last Orbital Gradient      ...    2.2798e-06  Tolerance :   2.0000e-06
  Last Orbital Rotation      ...    4.1430e-06  Tolerance :   2.0000e-06


----------------
ORBITAL ENERGIES
----------------

  NO   OCC          E(Eh)            E(eV) 
   0   2.0000     -76.364596     -2077.9863 
   1   2.0000     -76.320857     -2076.7961 
   2   2.0000      -9.917430      -269.8670 
   3   2.0000      -9.917289      -269.8631 
   4   2.0000      -9.913535      -269.7610 
   5   2.0000      -9.902804      -269.4690 
   6   2.0000      -9.901821      -269.4422 
   7   2.0000      -9.899038      -269.3665 
   8   2.0000      -6.330614      -172.2648 
   9   2.0000      -6.291376      -171.1971 
  10   2.0000      -4.552258      -123.8732 
  11   2.0000      -4.552046      -123.8675 
  12   2.0000      -4.549070      -123.7865 
  13   2.0000      -4.512774      -122.7988 
  14   2.0000      -4.512729      -122.7976 
  15   2.0000      -4.508989      -122.6958 
  16   2.0000      -2.808869       -76.4332 
  17   2.0000      -1.697589       -46.1938 
  18   2.0000      -1.686621       -45.8953 
  19   2.0000      -1.685124       -45.8545 
  20   2.0000      -0.701777       -19.0963 
  21   2.0000      -0.678773       -18.4704 
  22   2.0000      -0.627456       -17.0740 
  23   2.0000      -0.625271       -17.0145 
  24   2.0000      -0.608607       -16.5610 
  25   2.0000      -0.606796       -16.5117 
  26   2.0000      -0.492845       -13.4110 
  27   2.0000      -0.465667       -12.6715 
  28   2.0000      -0.419710       -11.4209 
  29   2.0000      -0.399878       -10.8812 
  30   2.0000      -0.390807       -10.6344 
  31   2.0000      -0.389681       -10.6038 
  32   2.0000      -0.381153       -10.3717 
  33   2.0000      -0.372365       -10.1326 
  34   2.0000      -0.367447        -9.9987 
  35   2.0000      -0.365856        -9.9554 
  36   2.0000      -0.364794        -9.9265 
  37   2.0000      -0.348916        -9.4945 
  38   2.0000      -0.346658        -9.4330 
  39   2.0000      -0.345179        -9.3928 
  40   2.0000      -0.332183        -9.0392 
  41   2.0000      -0.306257        -8.3337 
  42   2.0000      -0.304550        -8.2872 
  43   2.0000      -0.282344        -7.6830 
  44   2.0000      -0.281764        -7.6672 
  45   2.0000      -0.262050        -7.1307 
  46   2.0000      -0.258773        -7.0416 
  47   2.0000      -0.252589        -6.8733 
  48   2.0000      -0.184779        -5.0281 
  49   2.0000      -0.174180        -4.7397 
  50   2.0000      -0.157292        -4.2801 
  51   2.0000      -0.138630        -3.7723 
  52   0.0000      -0.066318        -1.8046 
  53   0.0000      -0.061855        -1.6832 
  54   0.0000       0.013469         0.3665 
  55   0.0000       0.029317         0.7978 
  56   0.0000       0.039577         1.0770 
  57   0.0000       0.045104         1.2273 
  58   0.0000       0.050547         1.3755 
  59   0.0000       0.056421         1.5353 
  60   0.0000       0.059993         1.6325 
  61   0.0000       0.069543         1.8924 
  62   0.0000       0.076501         2.0817 
*Only the first 10 virtual orbitals were printed.

                    ********************************
                    * MULLIKEN POPULATION ANALYSIS *
                    ********************************

-----------------------
MULLIKEN ATOMIC CHARGES
-----------------------
   0 Ru:   -0.294538
   1 P :    0.124727
   2 P :    0.066393
   3 H :    0.108801
   4 H :   -0.026114
   5 H :   -0.039298
   6 H :   -0.020612
   7 C :   -0.123862
   8 H :    0.077718
   9 H :    0.041016
  10 H :    0.077026
  11 C :   -0.145452
  12 H :    0.044697
  13 H :    0.062016
  14 H :    0.072405
  15 C :   -0.146547
  16 H :    0.074401
  17 H :    0.063144
  18 H :    0.044791
  19 C :   -0.180689
  20 H :    0.067708
  21 H :    0.058541
  22 H :    0.038860
  23 C :   -0.186628
  24 H :    0.059021
  25 H :    0.041876
  26 H :    0.066519
  27 C :   -0.187098
  28 H :    0.042829
  29 H :    0.059379
  30 H :    0.058971
Sum of atomic charges:    0.0000000

--------------------------------
MULLIKEN REDUCED ORBITAL CHARGES
--------------------------------
  0 Rus       :     2.551868  s :     2.551868
      pz      :     2.050606  p :     6.278553
      px      :     2.053843
      py      :     2.174104
      dz2     :     1.170752  d :     7.459521
      dxz     :     1.836545
      dyz     :     1.649981
      dx2y2   :     1.127171
      dxy     :     1.675073
      f0      :     0.000690  f :     0.004596
      f+1     :     0.000618
      f-1     :     0.000758
      f+2     :     0.000328
      f-2     :     0.000067
      f+3     :     0.000994
      f-3     :     0.001141

  1 P s       :     5.508806  s :     5.508806
      pz      :     2.930835  p :     9.103724
      px      :     2.970379
      py      :     3.202509
      dz2     :     0.044271  d :     0.262743
      dxz     :     0.063973
      dyz     :     0.049133
      dx2y2   :     0.035340
      dxy     :     0.070027

  2 P s       :     5.810270  s :     5.810270
      pz      :     2.812046  p :     8.949651
      px      :     3.264257
      py      :     2.873348
      dz2     :     0.035816  d :     0.173685
      dxz     :     0.023796
      dyz     :     0.052295
      dx2y2   :     0.021620
      dxy     :     0.040159

  3 H s       :     0.863541  s :     0.863541
      pz      :     0.011944  p :     0.027658
      px      :     0.008243
      py      :     0.007471

  4 H s       :     1.005986  s :     1.005986
      pz      :     0.008062  p :     0.020128
      px      :     0.005911
      py      :     0.006155

  5 H s       :     1.018841  s :     1.018841
      pz      :     0.008357  p :     0.020457
      px      :     0.006430
      py      :     0.005669

  6 H s       :     1.000924  s :     1.000924
      pz      :     0.006249  p :     0.019689
      px      :     0.007672
      py      :     0.005767

  7 C s       :     3.060084  s :     3.060084
      pz      :     1.019567  p :     3.044441
      px      :     1.029413
      py      :     0.995461
      dz2     :     0.004665  d :     0.019337
      dxz     :     0.004630
      dyz     :     0.001464
      dx2y2   :     0.003550
      dxy     :     0.005029

  8 H s       :     0.898918  s :     0.898918
      pz      :     0.005080  p :     0.023364
      px      :     0.009983
      py      :     0.008301

  9 H s       :     0.935980  s :     0.935980
      pz      :     0.004990  p :     0.023003
      px      :     0.005754
      py      :     0.012259

 10 H s       :     0.899591  s :     0.899591
      pz      :     0.010688  p :     0.023382
      px      :     0.007035
      py      :     0.005659

 11 C s       :     3.066977  s :     3.066977
      pz      :     1.035263  p :     3.059166
      px      :     1.021233
      py      :     1.002670
      dz2     :     0.004121  d :     0.019309
      dxz     :     0.006096
      dyz     :     0.000982
      dx2y2   :     0.003751
      dxy     :     0.004359

 12 H s       :     0.932233  s :     0.932233
      pz      :     0.005162  p :     0.023071
      px      :     0.006272
      py      :     0.011637

 13 H s       :     0.914751  s :     0.914751
      pz      :     0.009980  p :     0.023233
      px      :     0.008117
      py      :     0.005136

 14 H s       :     0.904400  s :     0.904400
      pz      :     0.010394  p :     0.023195
      px      :     0.007483
      py      :     0.005318

 15 C s       :     3.067716  s :     3.067716
      pz      :     1.020691  p :     3.059517
      px      :     1.030878
      py      :     1.007948
      dz2     :     0.004495  d :     0.019315
      dxz     :     0.004778
      dyz     :     0.001571
      dx2y2   :     0.003433
      dxy     :     0.005038

 16 H s       :     0.902411  s :     0.902411
      pz      :     0.005209  p :     0.023188
      px      :     0.010048
      py      :     0.007932

 17 H s       :     0.913598  s :     0.913598
      pz      :     0.010537  p :     0.023258
      px      :     0.007431
      py      :     0.005291

 18 H s       :     0.932123  s :     0.932123
      pz      :     0.005176  p :     0.023086
      px      :     0.005784
      py      :     0.012127

 19 C s       :     3.074291  s :     3.074291
      pz      :     1.044026  p :     3.086561
      px      :     1.009982
      py      :     1.032552
      dz2     :     0.004325  d :     0.019837
      dxz     :     0.000860
      dyz     :     0.005957
      dx2y2   :     0.004051
      dxy     :     0.004644

 20 H s       :     0.908836  s :     0.908836
      pz      :     0.009069  p :     0.023456
      px      :     0.005104
      py      :     0.009283

 21 H s       :     0.918464  s :     0.918464
      pz      :     0.011112  p :     0.022995
      px      :     0.005001
      py      :     0.006883

 22 H s       :     0.938392  s :     0.938392
      pz      :     0.005194  p :     0.022749
      px      :     0.010778
      py      :     0.006777

 23 C s       :     3.076431  s :     3.076431
      pz      :     1.035589  p :     3.090223
      px      :     1.022562
      py      :     1.032071
      dz2     :     0.004731  d :     0.019974
      dxz     :     0.001696
      dyz     :     0.004822
      dx2y2   :     0.003038
      dxy     :     0.005688

 24 H s       :     0.918052  s :     0.918052
      pz      :     0.005158  p :     0.022927
      px      :     0.008057
      py      :     0.009712

 25 H s       :     0.935407  s :     0.935407
      pz      :     0.004925  p :     0.022717
      px      :     0.011962
      py      :     0.005831

 26 H s       :     0.910283  s :     0.910283
      pz      :     0.009889  p :     0.023198
      px      :     0.005377
      py      :     0.007932

 27 C s       :     3.087131  s :     3.087131
      pz      :     1.030724  p :     3.079995
      px      :     1.021252
      py      :     1.028018
      dz2     :     0.005636  d :     0.019972
      dxz     :     0.001336
      dyz     :     0.003926
      dx2y2   :     0.002914
      dxy     :     0.006160

 28 H s       :     0.934394  s :     0.934394
      pz      :     0.005257  p :     0.022777
      px      :     0.011706
      py      :     0.005815

 29 H s       :     0.917624  s :     0.917624
      pz      :     0.011356  p :     0.022997
      px      :     0.005163
      py      :     0.006478

 30 H s       :     0.918054  s :     0.918054
      pz      :     0.005209  p :     0.022975
      px      :     0.008140
      py      :     0.009626



                     *******************************
                     * LOEWDIN POPULATION ANALYSIS *
                     *******************************

----------------------
LOEWDIN ATOMIC CHARGES
----------------------
   0 Ru:   -0.859566
   1 P :    0.839755
   2 P :    0.443351
   3 H :    0.118611
   4 H :    0.032116
   5 H :    0.069682
   6 H :    0.033587
   7 C :   -0.190665
   8 H :    0.047379
   9 H :    0.026249
  10 H :    0.047143
  11 C :   -0.208293
  12 H :    0.028442
  13 H :    0.038702
  14 H :    0.043344
  15 C :   -0.208184
  16 H :    0.043848
  17 H :    0.039000
  18 H :    0.028612
  19 C :   -0.220668
  20 H :    0.039046
  21 H :    0.033094
  22 H :    0.018865
  23 C :   -0.225663
  24 H :    0.032431
  25 H :    0.020146
  26 H :    0.032748
  27 C :   -0.226938
  28 H :    0.020442
  29 H :    0.031754
  30 H :    0.031629

-------------------------------
LOEWDIN REDUCED ORBITAL CHARGES
-------------------------------
  0 Rus       :     2.496718  s :     2.496718
      pz      :     2.097249  p :     6.606209
      px      :     2.121012
      py      :     2.387948
      dz2     :     1.260709  d :     7.748456
      dxz     :     1.830568
      dyz     :     1.689781
      dx2y2   :     1.259687
      dxy     :     1.707711
      f0      :     0.001297  f :     0.008182
      f+1     :     0.001075
      f-1     :     0.001304
      f+2     :     0.000625
      f-2     :     0.000104
      f+3     :     0.001776
      f-3     :     0.002002

  1 P s       :     5.049118  s :     5.049118
      pz      :     2.841808  p :     8.764722
      px      :     2.872267
      py      :     3.050647
      dz2     :     0.057842  d :     0.346406
      dxz     :     0.087752
      dyz     :     0.061411
      dx2y2   :     0.043986
      dxy     :     0.095415

  2 P s       :     5.316299  s :     5.316299
      pz      :     2.814112  p :     9.015316
      px      :     3.310650
      py      :     2.890554
      dz2     :     0.047087  d :     0.225034
      dxz     :     0.027625
      dyz     :     0.071773
      dx2y2   :     0.025009
      dxy     :     0.053541

  3 H s       :     0.798650  s :     0.798650
      pz      :     0.034742  p :     0.082739
      px      :     0.024046
      py      :     0.023950

  4 H s       :     0.907489  s :     0.907489
      pz      :     0.024004  p :     0.060396
      px      :     0.018645
      py      :     0.017747

  5 H s       :     0.867088  s :     0.867088
      pz      :     0.032610  p :     0.063230
      px      :     0.018266
      py      :     0.012353

  6 H s       :     0.905911  s :     0.905911
      pz      :     0.019066  p :     0.060502
      px      :     0.023615
      py      :     0.017820

  7 C s       :     2.893522  s :     2.893522
      pz      :     1.086331  p :     3.244547
      px      :     1.086306
      py      :     1.071911
      dz2     :     0.012748  d :     0.052596
      dxz     :     0.013440
      dyz     :     0.003427
      dx2y2   :     0.009600
      dxy     :     0.013381

  8 H s       :     0.883561  s :     0.883561
      pz      :     0.014210  p :     0.069060
      px      :     0.031818
      py      :     0.023032

  9 H s       :     0.905137  s :     0.905137
      pz      :     0.013978  p :     0.068614
      px      :     0.016249
      py      :     0.038388

 10 H s       :     0.883801  s :     0.883801
      pz      :     0.035434  p :     0.069056
      px      :     0.020036
      py      :     0.013586

 11 C s       :     2.899286  s :     2.899286
      pz      :     1.085589  p :     3.256504
      px      :     1.091329
      py      :     1.079587
      dz2     :     0.011671  d :     0.052503
      dxz     :     0.016486
      dyz     :     0.002230
      dx2y2   :     0.009181
      dxy     :     0.012935

 12 H s       :     0.902354  s :     0.902354
      pz      :     0.012657  p :     0.069205
      px      :     0.017693
      py      :     0.038855

 13 H s       :     0.892826  s :     0.892826
      pz      :     0.029798  p :     0.068472
      px      :     0.025323
      py      :     0.013352

 14 H s       :     0.887742  s :     0.887742
      pz      :     0.031615  p :     0.068914
      px      :     0.023191
      py      :     0.014107

 15 C s       :     2.898966  s :     2.898966
      pz      :     1.090822  p :     3.256691
      px      :     1.087958
      py      :     1.077911
      dz2     :     0.012031  d :     0.052527
      dxz     :     0.013713
      dyz     :     0.004083
      dx2y2   :     0.009143
      dxy     :     0.013557

 16 H s       :     0.887235  s :     0.887235
      pz      :     0.014861  p :     0.068917
      px      :     0.031913
      py      :     0.022143

 17 H s       :     0.892502  s :     0.892502
      pz      :     0.034648  p :     0.068498
      px      :     0.021299
      py      :     0.012552

 18 H s       :     0.902155  s :     0.902155
      pz      :     0.014462  p :     0.069233
      px      :     0.016265
      py      :     0.038506

 19 C s       :     2.903967  s :     2.903967
      pz      :     1.086333  p :     3.263257
      px      :     1.088594
      py      :     1.088329
      dz2     :     0.012444  d :     0.053444
      dxz     :     0.001852
      dyz     :     0.015818
      dx2y2   :     0.009821
      dxy     :     0.013511

 20 H s       :     0.890843  s :     0.890843
      pz      :     0.027007  p :     0.070111
      px      :     0.013915
      py      :     0.029189

 21 H s       :     0.898801  s :     0.898801
      pz      :     0.034080  p :     0.068105
      px      :     0.013522
      py      :     0.020504

 22 H s       :     0.912388  s :     0.912388
      pz      :     0.013084  p :     0.068747
      px      :     0.036732
      py      :     0.018930

 23 C s       :     2.905685  s :     2.905685
      pz      :     1.096262  p :     3.266291
      px      :     1.083145
      py      :     1.086884
      dz2     :     0.012553  d :     0.053687
      dxz     :     0.003898
      dyz     :     0.013870
      dx2y2   :     0.008234
      dxy     :     0.015133

 24 H s       :     0.899592  s :     0.899592
      pz      :     0.015020  p :     0.067977
      px      :     0.022711
      py      :     0.030246

 25 H s       :     0.911090  s :     0.911090
      pz      :     0.014415  p :     0.068764
      px      :     0.037856
      py      :     0.016492

 26 H s       :     0.898207  s :     0.898207
      pz      :     0.033225  p :     0.069045
      px      :     0.013166
      py      :     0.022654

 27 C s       :     2.907246  s :     2.907246
      pz      :     1.090610  p :     3.265844
      px      :     1.085178
      py      :     1.090055
      dz2     :     0.014567  d :     0.053848
      dxz     :     0.003394
      dyz     :     0.011526
      dx2y2   :     0.007744
      dxy     :     0.016618

 28 H s       :     0.910809  s :     0.910809
      pz      :     0.014224  p :     0.068748
      px      :     0.037321
      py      :     0.017203

 29 H s       :     0.900143  s :     0.900143
      pz      :     0.037340  p :     0.068103
      px      :     0.012518
      py      :     0.018245

 30 H s       :     0.900366  s :     0.900366
      pz      :     0.014198  p :     0.068005
      px      :     0.023021
      py      :     0.030786



                      *****************************
                      * MAYER POPULATION ANALYSIS *
                      *****************************

  NA   - Mulliken gross atomic population
  ZA   - Total nuclear charge
  QA   - Mulliken gross atomic charge
  VA   - Mayer's total valence
  BVA  - Mayer's bonded valence
  FA   - Mayer's free valence

  ATOM       NA         ZA         QA         VA         BVA        FA
  0 Ru    16.2945    16.0000    -0.2945     3.9531     3.9531    -0.0000
  1 P     14.8753    15.0000     0.1247     4.2843     4.2843    -0.0000
  2 P     14.9336    15.0000     0.0664     3.2072     3.2072     0.0000
  3 H      0.8912     1.0000     0.1088     0.9987     0.9987    -0.0000
  4 H      1.0261     1.0000    -0.0261     1.0099     1.0099    -0.0000
  5 H      1.0393     1.0000    -0.0393     1.0078     1.0078    -0.0000
  6 H      1.0206     1.0000    -0.0206     1.0121     1.0121     0.0000
  7 C      6.1239     6.0000    -0.1239     3.8986     3.8986    -0.0000
  8 H      0.9223     1.0000     0.0777     0.9935     0.9935     0.0000
  9 H      0.9590     1.0000     0.0410     0.9916     0.9916    -0.0000
 10 H      0.9230     1.0000     0.0770     0.9936     0.9936    -0.0000
 11 C      6.1455     6.0000    -0.1455     3.8855     3.8855    -0.0000
 12 H      0.9553     1.0000     0.0447     0.9936     0.9936     0.0000
 13 H      0.9380     1.0000     0.0620     0.9910     0.9910     0.0000
 14 H      0.9276     1.0000     0.0724     0.9934     0.9934     0.0000
 15 C      6.1465     6.0000    -0.1465     3.8892     3.8892     0.0000
 16 H      0.9256     1.0000     0.0744     0.9921     0.9921     0.0000
 17 H      0.9369     1.0000     0.0631     0.9901     0.9901     0.0000
 18 H      0.9552     1.0000     0.0448     0.9935     0.9935    -0.0000
 19 C      6.1807     6.0000    -0.1807     3.8938     3.8938    -0.0000
 20 H      0.9323     1.0000     0.0677     1.0126     1.0126     0.0000
 21 H      0.9415     1.0000     0.0585     0.9853     0.9853     0.0000
 22 H      0.9611     1.0000     0.0389     0.9910     0.9910    -0.0000
 23 C      6.1866     6.0000    -0.1866     3.8969     3.8969     0.0000
 24 H      0.9410     1.0000     0.0590     0.9847     0.9847     0.0000
 25 H      0.9581     1.0000     0.0419     0.9917     0.9917     0.0000
 26 H      0.9335     1.0000     0.0665     0.9960     0.9960     0.0000
 27 C      6.1871     6.0000    -0.1871     3.8897     3.8897     0.0000
 28 H      0.9572     1.0000     0.0428     0.9910     0.9910    -0.0000
 29 H      0.9406     1.0000     0.0594     0.9854     0.9854     0.0000
 30 H      0.9410     1.0000     0.0590     0.9852     0.9852     0.0000

  Mayer bond orders larger than 0.100000
B(  0-Ru,  1-P ) :   0.9651 B(  0-Ru,  3-H ) :   0.4246 B(  0-Ru,  4-H ) :   0.9503 
B(  0-Ru,  5-H ) :   0.4407 B(  0-Ru,  6-H ) :   0.9579 B(  1-P ,  7-C ) :   1.0250 
B(  1-P , 11-C ) :   0.9954 B(  1-P , 15-C ) :   0.9981 B(  2-P , 19-C ) :   1.0120 
B(  2-P , 23-C ) :   1.0082 B(  2-P , 27-C ) :   0.9907 B(  3-H ,  5-H ) :   0.4983 
B(  7-C ,  8-H ) :   0.9558 B(  7-C ,  9-H ) :   0.9442 B(  7-C , 10-H ) :   0.9558 
B( 11-C , 12-H ) :   0.9444 B( 11-C , 13-H ) :   0.9595 B( 11-C , 14-H ) :   0.9576 
B( 15-C , 16-H ) :   0.9581 B( 15-C , 17-H ) :   0.9596 B( 15-C , 18-H ) :   0.9442 
B( 19-C , 20-H ) :   0.9546 B( 19-C , 21-H ) :   0.9631 B( 19-C , 22-H ) :   0.9480 
B( 23-C , 24-H ) :   0.9627 B( 23-C , 25-H ) :   0.9472 B( 23-C , 26-H ) :   0.9613 
B( 27-C , 28-H ) :   0.9504 B( 27-C , 29-H ) :   0.9655 B( 27-C , 30-H ) :   0.9656 


-------
TIMINGS
-------

Total SCF time: 0 days 0 hours 0 min 28 sec 

Total time                  ....      28.093 sec
Sum of individual times     ....      26.640 sec  ( 94.8%)

SCF preparation             ....       0.051 sec  (  0.2%)
Fock matrix formation       ....      26.323 sec  ( 93.7%)
  Startup                   ....       0.005 sec  (  0.0% of F)
  Split-RI-J                ....       6.822 sec  ( 25.9% of F)
  XC integration            ....      20.776 sec  ( 78.9% of F)
    XC Preparation          ....       0.000 sec  (  0.0% of XC)
    Basis function eval.    ....       7.915 sec  ( 38.1% of XC)
    Density eval.           ....       4.553 sec  ( 21.9% of XC)
    XC-Functional eval.     ....       1.449 sec  (  7.0% of XC)
    XC-Potential eval.      ....       6.051 sec  ( 29.1% of XC)
Diagonalization             ....       0.000 sec  (  0.0%)
Density matrix formation    ....       0.047 sec  (  0.2%)
Total Energy calculation    ....       0.007 sec  (  0.0%)
Population analysis         ....       0.010 sec  (  0.0%)
Orbital Transformation      ....       0.022 sec  (  0.1%)
Orbital Orthonormalization  ....       0.000 sec  (  0.0%)
DIIS solution               ....       0.101 sec  (  0.4%)
SOSCF solution              ....       0.080 sec  (  0.3%)
Finished LeanSCF after  28.1 sec

Maximum memory used throughout the entire LEANSCF-calculation: 48.1 MB

-------------------------   --------------------
FINAL SINGLE POINT ENERGY     -1019.259281874870
-------------------------   --------------------


------------------------------------------------------------------------------
                              ORCA PROPERTY CALCULATIONS
------------------------------------------------------------------------------

GBWName                                 ... 15h_pme3_Compound_1.gbw
Number of atoms                         ...     31
Number of basis functions               ...    261
Max core memory                         ...   4096 MB

Electric properties:
Dipole moment                           ... YES
Quadrupole moment                       ...  NO
Static polarizability (Dipole/Dipole)   ...  NO
Static polarizability (Dipole/Quad.)    ...  NO
Static polarizability (Quad./Quad.)     ...  NO
Static polarizability (Velocity)        ...  NO
Static hyperpolarizability              ...  NO

Atomic electric properties:
Dipole moment                           ...  NO
Quadrupole moment                       ...  NO
Static polarizability                   ...  NO

Choice of electric origin               ... Center of mass
Position of electric origin             ...    -4.707379     2.110031     1.057948

General magnetic properties:
Magnetizability                         ...  NO

EPR properties:
g-Tensor (aka g-matrix)                 ...  NO
Zero-Field splitting spin-orbit         ...  NO
Zero-field splitting spin-spin          ...  NO
Hyperfine couplings                     ...  NO (   0 nuclei)
Quadrupole couplings                    ...  NO (   0 nuclei)
Contact density                         ...  NO (   0 nuclei)

NMR properties:
Chemical shifts                         ...  NO (   0 nuclei)
Spin-rotation constants                 ...  NO (   0 nuclei)
Spin-spin couplings                     ...  NO (   0 nuclei,    0 pairs)

Choice of magnetic origin               ... GIAO
Position of magnetic origin             ...     0.000000     0.000000     0.000000

Properties with geometric perturbations:
SCF Hessian                             ...  NO
IR spectrum                             ...  NO
VCD spectrum                            ...  NO
X-ray spectroscopy properties:
SCF XES/XAS/RIXS spectra                ...  NO

SCF SOC stabilization energy            ...  NO
Diagonal Born-Oppenheimer correction    ...  NO

-------------
DIPOLE MOMENT
-------------

Method             : SCF
Type of density    : Electron Density
Multiplicity       :   1
Irrep              :   0
Energy             : -1019.2592818748696573 Eh
Basis              : AO
                                X                 Y                 Z
Electronic contribution:    -17.592176882      29.116254453     -56.096658855
Nuclear contribution   :     17.922055558     -28.151719732      55.646416533
                        -----------------------------------------
Total Dipole Moment    :      0.329878676       0.964534721      -0.450242321
                        -----------------------------------------
Magnitude (a.u.)       :      1.114390110
Magnitude (Debye)      :      2.832554554



--------------------
Rotational spectrum 
--------------------
 
Rotational constants in cm-1:             0.057288             0.007204             0.006982 
Rotational constants in MHz :          1717.436979           215.963971           209.310277 

Dipole components along the rotational axes: 
x,y,z [a.u.] :     0.903484     0.052912    -0.650217 
x,y,z [Debye]:     2.296474     0.134491    -1.652721 

 

Dipole moment calculation done in   0.0 sec 

Maximum memory used throughout the entire PROP-calculation: 17.8 MB

Timings for individual modules:

Sum of individual times          ...       35.359 sec (=   0.589 min)
Startup calculation              ...        4.673 sec (=   0.078 min)  13.2 %
SCF iterations                   ...       30.623 sec (=   0.510 min)  86.6 %
Property calculations            ...        0.063 sec (=   0.001 min)   0.2 %


################################################################################


                                COMPOUND JOB  2 
Basename: 15h_pme3_Compound_2
NOTE: please remember that MaxCore and PAL settings will be ignored.

################################################################################

================================================================================
                                       INPUT FILE
================================================================================
NAME = 15h_pme3_Compound_2.inp
|  1>   ! BP86 def2-TZVP VeryTightSCF defgrid3 NOAUTOSTART
|  2>   %id "def2-tzvp"
|  3>   * xyzfile 0 1 opt1_pme3/15h_pme3_opt.xyz
|  4> 
|  5>                          ****END OF INPUT****
================================================================================


***************************************
The coordinates will be read from file: opt1_pme3/15h_pme3_opt.xyz
***************************************


Warning: RI is on but no J-basis has been assigned. Assigning Def2/J (nothing to worry about!)
================================================================================

cite the ECPs for Ru [Def2-ECP] as follows:
Ce-Yb(ecp-28): M. Dolg, H. Stoll, H.Preuss, J. Chem. Phys., 1989, 90, 1730-1734.
Y-Cd(ecp-28), Hf-Hg(ecp-46): D. Andrae,U. Haeussermann, M. Dolg, H. Stoll, H. Preuss, Theor. Chim. Acta, 1990, 77, 123-141.
In-Sb(ecp-28), Tl-Bi(ecp-46): B. Metz, H. Stoll, M. Dolg, J. Chem. Phys., 2000, 113, 2563-2569.
Te-Xe(ecp-28), Po-Rn(ecp-46): K. A. Peterson, D. Figgen, E. Goll, H. Stoll, M. Dolg, J. Chem. Phys., 2003, 119, 11113-11123.
Rb(ecp-28), Cs(ecp-46): T. Leininger, A. Nicklass, W. Kuechle, H. Stoll, M. Dolg, A. Bergner, Chem. Phys. Lett., 1996, 255, 274-280.
Sr(ecp-28), Ba(ecp-46): M. Kaupp, P. V. Schleyer, H. Stoll and H. Preuss, J. Chem. Phys., 1991, 94, 1360-1366.
La(ecp-46): M. Dolg, H. Stoll, A. Savin, H. Preuss, Theor. Chim. Acta, 1989, 75, 173-194.
Lu(ecp-28): X. Cao, M. Dolg, J. Chem. Phys., 2001, 115, 7348-7355.

ECP parameters for Ru [Def2-ECP] have been obtained from:
TURBOMOLE (7.0.2)

----- Orbital basis set information -----
Your calculation utilizes the basis: def2-TZVP
   F. Weigend and R. Ahlrichs, Phys. Chem. Chem. Phys. 7, 3297 (2005).

----- AuxJ basis set information -----
Your calculation utilizes the auxiliary basis: def2/J
   H-Rn: F. Weigend, Phys. Chem. Chem. Phys. 8, 1057 (2006).
   Fr-Lr: K. Eichkorn, F. Weigend, O. Treutler, R. Ahlrichs; Theor. Chem. Acc. 97, 119 (1997).

================================================================================
                                        WARNINGS
                       Please study these warnings very carefully!
================================================================================



                       ****************************
                       * Single Point Calculation *
                       ****************************

---------------------------------
CARTESIAN COORDINATES (ANGSTROEM)
---------------------------------
  Ru    -2.707751    1.502763   -0.187119
  P     -3.385046    3.679461   -0.162075
  P     -1.620555   -2.200163    2.297355
  H     -2.691180   -0.007135    0.549875
  H     -2.387514    1.777051    1.313817
  H     -2.212916   -0.163193   -0.186733
  H     -4.211276    1.202432    0.093126
  C     -4.479663    4.051464    1.256758
  H     -5.359556    3.393903    1.208928
  H     -4.799691    5.105803    1.258225
  H     -3.941015    3.824063    2.187960
  C     -2.101846    4.988492   -0.002793
  H     -2.546941    5.993797    0.072318
  H     -1.428403    4.959845   -0.873510
  H     -1.501795    4.789547    0.898260
  C     -4.371203    4.305228   -1.583268
  H     -5.255354    3.663046   -1.714656
  H     -3.768078    4.250403   -2.502838
  H     -4.697098    5.346857   -1.432768
  C     -0.177658   -1.043059    2.332326
  H     -0.302170   -0.267455    1.560707
  H     -0.147725   -0.532467    3.308267
  H      0.781004   -1.566521    2.176723
  C     -1.224494   -3.152573    0.761146
  H     -1.904260   -4.016340    0.678251
  H     -0.182827   -3.515586    0.744644
  H     -1.395216   -2.518468   -0.122317
  C     -1.044965   -3.428597    3.557267
  H     -0.022967   -3.794143    3.359414
  H     -1.069341   -2.968334    4.557612
  H     -1.732693   -4.289412    3.571146

----------------------------
CARTESIAN COORDINATES (A.U.)
----------------------------
  NO LB      ZA    FRAG     MASS         X           Y           Z
   0 Ru   16.0000*   0   101.070   -5.116908    2.839810   -0.353604
   1 P    15.0000    0    30.974   -6.396810    6.953173   -0.306277
   2 P    15.0000    0    30.974   -3.062404   -4.157706    4.341372
   3 H     1.0000    0     1.008   -5.085593   -0.013483    1.039114
   4 H     1.0000    0     1.008   -4.511748    3.358139    2.482755
   5 H     1.0000    0     1.008   -4.181804   -0.308389   -0.352875
   6 H     1.0000    0     1.008   -7.958157    2.272267    0.175983
   7 C     6.0000    0    12.011   -8.465336    7.656158    2.374928
   8 H     1.0000    0     1.008  -10.128093    6.413547    2.284543
   9 H     1.0000    0     1.008   -9.070102    9.648570    2.377701
  10 H     1.0000    0     1.008   -7.447439    7.226431    4.134645
  11 C     6.0000    0    12.011   -3.971913    9.426884   -0.005277
  12 H     1.0000    0     1.008   -4.813021   11.326635    0.136662
  13 H     1.0000    0     1.008   -2.699291    9.372749   -1.650694
  14 H     1.0000    0     1.008   -2.837981    9.050932    1.697466
  15 C     6.0000    0    12.011   -8.260376    8.135703   -2.991942
  16 H     1.0000    0     1.008   -9.931180    6.922154   -3.240230
  17 H     1.0000    0     1.008   -7.120635    8.032098   -4.729678
  18 H     1.0000    0     1.008   -8.876229   10.104096   -2.707540
  19 C     6.0000    0    12.011   -0.335724   -1.971096    4.407457
  20 H     1.0000    0     1.008   -0.571018   -0.505416    2.949308
  21 H     1.0000    0     1.008   -0.279160   -1.006218    6.251719
  22 H     1.0000    0     1.008    1.475884   -2.960297    4.113410
  23 C     6.0000    0    12.011   -2.313958   -5.957500    1.438357
  24 H     1.0000    0     1.008   -3.598530   -7.589782    1.281708
  25 H     1.0000    0     1.008   -0.345493   -6.643495    1.407174
  26 H     1.0000    0     1.008   -2.636577   -4.759214   -0.231146
  27 C     6.0000    0    12.011   -1.974697   -6.479110    6.722261
  28 H     1.0000    0     1.008   -0.043401   -7.169891    6.348372
  29 H     1.0000    0     1.008   -2.020762   -5.609338    8.612639
  30 H     1.0000    0     1.008   -3.274315   -8.105814    6.748489
* core charge reduced due to ECP

--------------------------------
INTERNAL COORDINATES (ANGSTROEM)
--------------------------------
 Ru     0   0   0     0.000000000000     0.00000000     0.00000000
 P      1   0   0     2.279774122000     0.00000000     0.00000000
 P      1   2   0     4.589800303046   146.58685106     0.00000000
 H      1   2   3     1.680245700936   148.88137067    28.48582907
 H      1   2   3     1.559036606363    83.25033288   344.10742079
 H      4   1   2     0.892010679181    78.48019873   179.35894536
 H      1   2   3     1.558628291282    83.99682515    78.24365313
 C      2   1   3     1.830207551742   112.35026945   327.89109314
 H      8   2   1     1.099493764080   108.86534407   301.45513942
 H      8   2   1     1.101839607377   111.66876417   179.97065560
 H      8   2   1     1.099541044000   108.75454026    58.62474100
 C      2   1   3     1.839982629760   118.23131412    86.10745393
 H     12   2   1     1.101993485535   111.91539770   184.17920926
 H     12   2   1     1.101133102451   109.85010021    63.02904784
 H     12   2   1     1.100698403160   108.81219152   304.97693324
 C      2   1   3     1.839532380793   118.39688357   209.24721833
 H     16   2   1     1.100628873151   108.92889042    55.27331596
 H     16   2   1     1.101078991592   109.55061687   297.17512532
 H     16   2   1     1.101747839305   112.00296756   176.28493462
 C      3   1   2     1.849882065746    71.96212816   281.81757672
 H     20   3   1     1.101118303546   109.82464398   346.38614604
 H     20   3   1     1.101844748897   109.13464764   103.75068212
 H     20   3   1     1.103293865940   112.22877154   224.35099387
 C      3   1   2     1.850374809585    90.94877523   181.78840264
 H     24   3   1     1.102291475827   109.49778542   242.17909238
 H     24   3   1     1.103231483796   112.57425669   120.93872462
 H     24   3   1     1.100792039065   109.67063170   359.52490219
 C      3   1   2     1.851414077895   167.77101397   326.60268785
 H     28   3  20     1.103290265280   112.69244943   309.02687838
 H     28   3  20     1.101420171022   109.50651323    70.23865938
[...]
      f+2     :     0.006708
      f-2     :     0.005110
      f+3     :     0.008460
      f-3     :     0.012585
      g0      :     0.000105  g :     0.001941
      g+1     :     0.000131
      g-1     :     0.000220
      g+2     :     0.000383
      g-2     :     0.000079
      g+3     :     0.000077
      g-3     :     0.000240
      g+4     :     0.000148
      g-4     :     0.000559

 20 H s       :     0.786810  s :     0.786810
      pz      :     0.073907  p :     0.210299
      px      :     0.058621
      py      :     0.077772
      dz2     :     0.021119  d :     0.067441
      dxz     :     0.010059
      dyz     :     0.013226
      dx2y2   :     0.009086
      dxy     :     0.013951
      f0      :     0.001688  f :     0.008916
      f+1     :     0.000307
      f-1     :     0.002142
      f+2     :     0.001520
      f-2     :     0.001834
      f+3     :     0.000866
      f-3     :     0.000558

 21 H s       :     0.789950  s :     0.789950
      pz      :     0.082232  p :     0.205945
      px      :     0.057461
      py      :     0.066253
      dz2     :     0.020606  d :     0.067500
      dxz     :     0.017598
      dyz     :     0.018477
      dx2y2   :     0.003702
      dxy     :     0.007116
      f0      :     0.002752  f :     0.008904
      f+1     :     0.001349
      f-1     :     0.001986
      f+2     :     0.000976
      f-2     :     0.001543
      f+3     :     0.000215
      f-3     :     0.000082

 22 H s       :     0.799169  s :     0.799169
      pz      :     0.054748  p :     0.206606
      px      :     0.089840
      py      :     0.062018
      dz2     :     0.005694  d :     0.066795
      dxz     :     0.016203
      dyz     :     0.007425
      dx2y2   :     0.021349
      dxy     :     0.016125
      f0      :     0.001001  f :     0.008839
      f+1     :     0.001075
      f-1     :     0.000409
      f+2     :     0.000463
      f-2     :     0.001518
      f+3     :     0.002805
      f-3     :     0.001567

 23 C s       :     2.597360  s :     2.597360
      pz      :     0.981669  p :     2.923790
      px      :     0.971032
      py      :     0.971089
      dz2     :     0.084671  d :     0.346519
      dxz     :     0.046648
      dyz     :     0.088451
      dx2y2   :     0.043035
      dxy     :     0.083714
      f0      :     0.007125  f :     0.052590
      f+1     :     0.009448
      f-1     :     0.009781
      f+2     :     0.006735
      f-2     :     0.008234
      f+3     :     0.006066
      f-3     :     0.005200
      g0      :     0.000292  g :     0.001943
      g+1     :     0.000119
      g-1     :     0.000262
      g+2     :     0.000353
      g-2     :     0.000396
      g+3     :     0.000142
      g-3     :     0.000098
      g+4     :     0.000089
      g-4     :     0.000193

 24 H s       :     0.792299  s :     0.792299
      pz      :     0.059932  p :     0.205694
      px      :     0.066870
      py      :     0.078892
      dz2     :     0.004603  d :     0.067318
      dxz     :     0.007826
      dyz     :     0.017827
      dx2y2   :     0.024097
      dxy     :     0.012965
      f0      :     0.001146  f :     0.008877
      f+1     :     0.000541
      f-1     :     0.000678
      f+2     :     0.000314
      f-2     :     0.001739
      f+3     :     0.002018
      f-3     :     0.002442

 25 H s       :     0.798832  s :     0.798832
      pz      :     0.057547  p :     0.206355
      px      :     0.088493
      py      :     0.060315
      dz2     :     0.004534  d :     0.066795
      dxz     :     0.020930
      dyz     :     0.004059
      dx2y2   :     0.015804
      dxy     :     0.021467
      f0      :     0.001165  f :     0.008841
      f+1     :     0.000915
      f-1     :     0.000253
      f+2     :     0.000970
      f-2     :     0.001023
      f+3     :     0.002310
      f-3     :     0.002204

 26 H s       :     0.791537  s :     0.791537
      pz      :     0.084392  p :     0.208878
      px      :     0.055626
      py      :     0.068861
      dz2     :     0.023016  d :     0.067586
      dxz     :     0.013775
      dyz     :     0.013998
      dx2y2   :     0.007327
      dxy     :     0.009470
      f0      :     0.002414  f :     0.008940
      f+1     :     0.000794
      f-1     :     0.001828
      f+2     :     0.001440
      f-2     :     0.001718
      f+3     :     0.000356
      f-3     :     0.000390

 27 C s       :     2.598488  s :     2.598488
      pz      :     0.971114  p :     2.923682
      px      :     0.975090
      py      :     0.977478
      dz2     :     0.093966  d :     0.346615
      dxz     :     0.033091
      dyz     :     0.071124
      dx2y2   :     0.046983
      dxy     :     0.101451
      f0      :     0.007630  f :     0.052422
      f+1     :     0.006165
      f-1     :     0.009696
      f+2     :     0.007265
      f-2     :     0.008077
      f+3     :     0.007131
      f-3     :     0.006457
      g0      :     0.000160  g :     0.001937
      g+1     :     0.000079
      g-1     :     0.000447
      g+2     :     0.000239
      g-2     :     0.000252
      g+3     :     0.000194
      g-3     :     0.000205
      g+4     :     0.000149
      g-4     :     0.000212

 28 H s       :     0.798991  s :     0.798991
      pz      :     0.056343  p :     0.206260
      px      :     0.088291
      py      :     0.061627
      dz2     :     0.006727  d :     0.066713
      dxz     :     0.018786
      dyz     :     0.004290
      dx2y2   :     0.015639
      dxy     :     0.021271
      f0      :     0.000911  f :     0.008832
      f+1     :     0.001300
      f-1     :     0.000310
      f+2     :     0.000953
      f-2     :     0.001034
      f+3     :     0.002204
      f-3     :     0.002122

 29 H s       :     0.793635  s :     0.793635
      pz      :     0.088574  p :     0.205909
      px      :     0.054927
      py      :     0.062408
      dz2     :     0.021730  d :     0.067396
      dxz     :     0.018855
      dyz     :     0.017810
      dx2y2   :     0.003415
      dxy     :     0.005586
      f0      :     0.002907  f :     0.008906
      f+1     :     0.001677
      f-1     :     0.001985
      f+2     :     0.000871
      f-2     :     0.001268
      f+3     :     0.000126
      f-3     :     0.000073

 30 H s       :     0.793674  s :     0.793674
      pz      :     0.058066  p :     0.205758
      px      :     0.067347
      py      :     0.080346
      dz2     :     0.004477  d :     0.067329
      dxz     :     0.008277
      dyz     :     0.017128
      dx2y2   :     0.024335
      dxy     :     0.013112
      f0      :     0.001182  f :     0.008886
      f+1     :     0.000530
      f-1     :     0.000646
      f+2     :     0.000245
      f-2     :     0.001775
      f+3     :     0.002049
      f-3     :     0.002459



                      *****************************
                      * MAYER POPULATION ANALYSIS *
                      *****************************

  NA   - Mulliken gross atomic population
  ZA   - Total nuclear charge
  QA   - Mulliken gross atomic charge
  VA   - Mayer's total valence
  BVA  - Mayer's bonded valence
  FA   - Mayer's free valence

  ATOM       NA         ZA         QA         VA         BVA        FA
  0 Ru    16.0264    16.0000    -0.0264     3.9631     3.9631    -0.0000
  1 P     14.9580    15.0000     0.0420     4.0343     4.0343    -0.0000
  2 P     14.9360    15.0000     0.0640     3.1409     3.1409    -0.0000
  3 H      0.9298     1.0000     0.0702     1.1047     1.1047    -0.0000
  4 H      1.0637     1.0000    -0.0637     1.0988     1.0988     0.0000
  5 H      1.0015     1.0000    -0.0015     1.1051     1.1051    -0.0000
  6 H      1.0592     1.0000    -0.0592     1.0952     1.0952     0.0000
  7 C      6.2281     6.0000    -0.2281     3.8150     3.8150    -0.0000
  8 H      0.9016     1.0000     0.0984     1.0093     1.0093    -0.0000
  9 H      0.9468     1.0000     0.0532     1.0137     1.0137    -0.0000
 10 H      0.9026     1.0000     0.0974     1.0092     1.0092    -0.0000
 11 C      6.2318     6.0000    -0.2318     3.7892     3.7892     0.0000
 12 H      0.9439     1.0000     0.0561     1.0136     1.0136    -0.0000
 13 H      0.9199     1.0000     0.0801     1.0131     1.0131     0.0000
 14 H      0.9015     1.0000     0.0985     1.0120     1.0120     0.0000
 15 C      6.2367     6.0000    -0.2367     3.8001     3.8001     0.0000
 16 H      0.8990     1.0000     0.1010     1.0096     1.0096     0.0000
 17 H      0.9188     1.0000     0.0812     1.0113     1.0113     0.0000
 18 H      0.9430     1.0000     0.0570     1.0144     1.0144     0.0000
 19 C      6.2021     6.0000    -0.2021     3.8594     3.8594     0.0000
 20 H      0.9295     1.0000     0.0705     1.0239     1.0239    -0.0000
 21 H      0.9267     1.0000     0.0733     1.0172     1.0172     0.0000
 22 H      0.9508     1.0000     0.0492     1.0211     1.0211     0.0000
 23 C      6.2206     6.0000    -0.2206     3.8526     3.8526     0.0000
 24 H      0.9251     1.0000     0.0749     1.0166     1.0166     0.0000
 25 H      0.9485     1.0000     0.0515     1.0235     1.0235     0.0000
 26 H      0.9205     1.0000     0.0795     1.0196     1.0196    -0.0000
 27 C      6.2399     6.0000    -0.2399     3.8205     3.8205     0.0000
 28 H      0.9456     1.0000     0.0544     1.0185     1.0185     0.0000
 29 H      0.9216     1.0000     0.0784     1.0148     1.0148     0.0000
 30 H      0.9209     1.0000     0.0791     1.0135     1.0135    -0.0000

  Mayer bond orders larger than 0.100000
B(  0-Ru,  1-P ) :   0.8751 B(  0-Ru,  3-H ) :   0.4912 B(  0-Ru,  4-H ) :   0.9429 
B(  0-Ru,  5-H ) :   0.5368 B(  0-Ru,  6-H ) :   0.9599 B(  1-P ,  7-C ) :   0.9518 
B(  1-P , 11-C ) :   0.9128 B(  1-P , 15-C ) :   0.9174 B(  2-P , 19-C ) :   0.9798 
B(  2-P , 23-C ) :   0.9714 B(  2-P , 27-C ) :   0.9473 B(  3-H ,  5-H ) :   0.5078 
B(  7-C ,  8-H ) :   0.9437 B(  7-C ,  9-H ) :   0.9422 B(  7-C , 10-H ) :   0.9435 
B( 11-C , 12-H ) :   0.9427 B( 11-C , 13-H ) :   0.9489 B( 11-C , 14-H ) :   0.9456 
B( 15-C , 16-H ) :   0.9458 B( 15-C , 17-H ) :   0.9485 B( 15-C , 18-H ) :   0.9436 
B( 19-C , 20-H ) :   0.9540 B( 19-C , 21-H ) :   0.9538 B( 19-C , 22-H ) :   0.9466 
B( 23-C , 24-H ) :   0.9550 B( 23-C , 25-H ) :   0.9488 B( 23-C , 26-H ) :   0.9562 
B( 27-C , 28-H ) :   0.9425 B( 27-C , 29-H ) :   0.9553 B( 27-C , 30-H ) :   0.9552 


-------
TIMINGS
-------

Total SCF time: 0 days 0 hours 3 min 7 sec 

Total time                  ....     187.991 sec
Sum of individual times     ....     180.185 sec  ( 95.8%)

SCF preparation             ....       0.122 sec  (  0.1%)
Fock matrix formation       ....     173.322 sec  ( 92.2%)
  Startup                   ....       0.044 sec  (  0.0% of F)
  Split-RI-J                ....      50.329 sec  ( 29.0% of F)
  XC integration            ....     130.547 sec  ( 75.3% of F)
    XC Preparation          ....       0.000 sec  (  0.0% of XC)
    Basis function eval.    ....      20.770 sec  ( 15.9% of XC)
    Density eval.           ....      39.227 sec  ( 30.0% of XC)
    XC-Functional eval.     ....       1.346 sec  (  1.0% of XC)
    XC-Potential eval.      ....      67.829 sec  ( 52.0% of XC)
Diagonalization             ....       0.000 sec  (  0.0%)
Density matrix formation    ....       0.257 sec  (  0.1%)
Total Energy calculation    ....       0.045 sec  (  0.0%)
Population analysis         ....       0.205 sec  (  0.1%)
Orbital Transformation      ....       0.960 sec  (  0.5%)
Orbital Orthonormalization  ....       0.000 sec  (  0.0%)
DIIS solution               ....       2.688 sec  (  1.4%)
SOSCF solution              ....       2.587 sec  (  1.4%)
Finished LeanSCF after 188.0 sec

Maximum memory used throughout the entire LEANSCF-calculation: 273.7 MB

-------------------------   --------------------
FINAL SINGLE POINT ENERGY     -1019.861408689002
-------------------------   --------------------


------------------------------------------------------------------------------
                              ORCA PROPERTY CALCULATIONS
------------------------------------------------------------------------------

GBWName                                 ... 15h_pme3_Compound_3.gbw
Number of atoms                         ...     31
Number of basis functions               ...   1214
Max core memory                         ...   4096 MB

Electric properties:
Dipole moment                           ... YES
Quadrupole moment                       ...  NO
Static polarizability (Dipole/Dipole)   ...  NO
Static polarizability (Dipole/Quad.)    ...  NO
Static polarizability (Quad./Quad.)     ...  NO
Static polarizability (Velocity)        ...  NO
Static hyperpolarizability              ...  NO

Atomic electric properties:
Dipole moment                           ...  NO
Quadrupole moment                       ...  NO
Static polarizability                   ...  NO

Choice of electric origin               ... Center of mass
Position of electric origin             ...    -4.707379     2.110031     1.057948

General magnetic properties:
Magnetizability                         ...  NO

EPR properties:
g-Tensor (aka g-matrix)                 ...  NO
Zero-Field splitting spin-orbit         ...  NO
Zero-field splitting spin-spin          ...  NO
Hyperfine couplings                     ...  NO (   0 nuclei)
Quadrupole couplings                    ...  NO (   0 nuclei)
Contact density                         ...  NO (   0 nuclei)

NMR properties:
Chemical shifts                         ...  NO (   0 nuclei)
Spin-rotation constants                 ...  NO (   0 nuclei)
Spin-spin couplings                     ...  NO (   0 nuclei,    0 pairs)

Choice of magnetic origin               ... GIAO
Position of magnetic origin             ...     0.000000     0.000000     0.000000

Properties with geometric perturbations:
SCF Hessian                             ...  NO
IR spectrum                             ...  NO
VCD spectrum                            ...  NO
X-ray spectroscopy properties:
SCF XES/XAS/RIXS spectra                ...  NO

SCF SOC stabilization energy            ...  NO
Diagonal Born-Oppenheimer correction    ...  NO

-------------
DIPOLE MOMENT
-------------

Method             : SCF
Type of density    : Electron Density
Multiplicity       :   1
Irrep              :   0
Energy             : -1019.8614086890020189 Eh
Basis              : AO
                                X                 Y                 Z
Electronic contribution:    -17.603293404      29.102888609     -56.108775860
Nuclear contribution   :     17.922055558     -28.151719732      55.646416533
                        -----------------------------------------
Total Dipole Moment    :      0.318762155       0.951168877      -0.462359326
                        -----------------------------------------
Magnitude (a.u.)       :      1.104584850
Magnitude (Debye)      :      2.807631563



--------------------
Rotational spectrum 
--------------------
 
Rotational constants in cm-1:             0.057288             0.007204             0.006982 
Rotational constants in MHz :          1717.436979           215.963971           209.310277 

Dipole components along the rotational axes: 
x,y,z [a.u.] :     0.899696     0.034807    -0.639877 
x,y,z [Debye]:     2.286846     0.088473    -1.626438 

 

Dipole moment calculation done in   0.0 sec 

Maximum memory used throughout the entire PROP-calculation: 245.4 MB

Timings for individual modules:

Sum of individual times          ...      196.095 sec (=   3.268 min)
Startup calculation              ...        7.320 sec (=   0.122 min)   3.7 %
SCF iterations                   ...      188.643 sec (=   3.144 min)  96.2 %
Property calculations            ...        0.131 sec (=   0.002 min)   0.1 %

--------------------------------
SUGGESTED CITATIONS FOR THIS RUN
--------------------------------

Below you find a list of papers that are relevant to this ORCA run
We neither can nor want to force you to cite these papers, but we appreciate if you do
You receive ORCA, which is the product of decades of hard work by many enthusiastic individuals, for free
The only thing we kindly ask in return is that you cite our papers,
We deeply appreciate it, if you show your appreciation for ORCA by not just citing the generic ORCA reference.

Please note that relegating all ORCA citations to the supporting information does *not* help us.
SI sections are not indexed - citations you put there will not count into any citation statistics
But we need these citations in order to attract the funding resources that allow us to do what we are doing

Therefore, if you are a happy ORCA user, please consider citing a few of the papers listed below in the main body of your paper

In addition to the list printed below, the program has created the file 15h_pme3.bibtex that contains the list in bibtex format
You can import this file easily into all common literature databanks and citation aid programs

It goes without saying that in many instances, there are alternative algorithms to achieve similar
results as the ones you have gotten from ORCA. It is, of course, also the case that in some instances
ORCA just re-implements algorithms worked out by others. We are fully aware of that and we are also
fully appreciative of our colleagues work. Hence this citation list should not be read as indicating
that the listed papers, which are focused on our own work, are the only ones worth citing. It simply
meant to make it easier for users to cite ORCA specific papers. It is not a substitute for doing your
own literature research and citing the relevant literature in a scientifically appropriate manner.

List of essential papers. We consider these as the minimum necessary citations

  1. Neese, F.
     Software update: the ORCA program system, version 6.0
     WIRES Comput. Molec. Sci. 2025 15(1), e70019
     doi.org/10.1002/wcms.70019

List of papers to cite with high priority. The work reported in these papers was absolutely
necessary for this run to complete.
Our perspective: the developers of density functionals and basis sets usually get cited in chemistry papers
Good! But without the algorithms to do something with them, the functionals or basis sets would not do anything.
Hence, in our opinion, the algorithm design and method developments papers are equally worthy of getting cited

  1. Neese, F.
     An improvement of the resolution of the identity approximation for the formation of the Coulomb matrix
     J. Comp. Chem. 2003 24(14), 1740-1747
     doi.org/10.1002/jcc.10318
  2. Neese, F.
     The SHARK Integral Generation and Digestion System
     J. Comp. Chem. 2022 44(3), 381
     doi.org/10.1002/jcc.26942

List of suggested additional citations. These are papers that are important in the 'surrounding' of 
of this run, or papers that preceded the highly important papers. If you like your results we are grateful for a citation.

  1. Neese, F.
     The ORCA program system
     WIRES Comput. Molec. Sci. 2012 2(1), 73-78
     doi.org/10.1002/wcms.81
  2. Neese, F.
     Software update: the ORCA program system, version 4.0
     WIRES Comput. Molec. Sci. 2018 8(1), 1-6
     doi.org/10.1002/wcms.1327
  3. Neese, F.; Wennmohs, F.; Becker, U.; Riplinger, C.
     The ORCA quantum chemistry program package
     J. Chem. Phys. 2020 152(22), 224108
     doi.org/10.1063/5.0004608
  4. Neese, F.
     Software update: The ORCA program system—Version 5.0
     WIRES Comput. Molec. Sci. 2022 12(1), e1606
     doi.org/10.1002/wcms.1606

List of optional additional citations

  1. Neese, F.
     Approximate second-order SCF convergence for spin unrestricted wavefunctions
     Chem. Phys. Lett. 2000 325(1-3), 93-98
     doi.org/10.1016/s0009-2614(00)00662-x
                             ****ORCA TERMINATED NORMALLY****
TOTAL RUN TIME: 0 days 0 hours 4 minutes 51 seconds 602 msec
