
                                 *****************
                                 * O   R   C   A *
                                 *****************

                                            #,                                       
                                            ###                                      
                                            ####                                     
                                            #####                                    
                                            ######                                   
                                           ########,                                 
                                     ,,################,,,,,                         
                               ,,#################################,,                 
                          ,,##########################################,,             
                       ,#########################################, ''#####,          
                    ,#############################################,,   '####,        
                  ,##################################################,,,,####,       
                ,###########''''           ''''###############################       
              ,#####''   ,,,,##########,,,,          '''####'''          '####       
            ,##' ,,,,###########################,,,                        '##       
           ' ,,###''''                  '''############,,,                           
         ,,##''                                '''############,,,,        ,,,,,,###''
      ,#''                                            '''#######################'''  
     '                                                          ''''####''''         
             ,#######,   #######,   ,#######,      ##                                
            ,#'     '#,  ##    ##  ,#'     '#,    #''#        ,####,    ,#,          
            ##       ##  ##   ,#'  ##            #'  '#       #'       ,# #          
            ##       ##  #######   ##           ,######,      #####,      #          
            '#,     ,#'  ##    ##  '#,     ,#' ,#      #,     #,   #      #          
             '#######'   ##     ##  '#######'  #'      '#     '####' #    #          



                #########################################################
                #                        -***-                          #
                #          Department of theory and spectroscopy        #
                #                                                       #
                #                      Frank Neese                      #
                #                                                       #
                #     Directorship, Architecture, Infrastructure        #
                #                    SHARK, DRIVERS                     #
                #        Core code/Algorithms in most modules           #
                #                                                       #
                #        Max Planck Institute fuer Kohlenforschung      #
                #                Kaiser Wilhelm Platz 1                 #
                #                 D-45470 Muelheim/Ruhr                 #
                #                      Germany                          #
                #                                                       #
                #                  All rights reserved                  #
                #                        -***-                          #
                #########################################################


                         Program Version 6.1.1  -  RELEASE   -
                                (GIT: $487d211c$)
                          ($2025-11-21 10:33:24 +0100$)


 With contributions from (in alphabetic order):
[Max-Planck-Institut fuer Kohlenforschung]                               
  Daniel Aravena         : Magnetic Suceptibility                        
  Michael Atanasov       : Ab Initio Ligand Field Theory (pilot matlab implementation)
  Alexander A. Auer      : GIAO ZORA, VPT2 properties, NMR spectrum      
  Ute Becker             : All parallelization in ORCA, NUMFREQ, NUMCALC 
  Giovanni Bistoni       : ED, misc. LED, open-shell LED, HFLD           
  Dmytro Bykov           : pre 5.0 version of the SCF Hessian            
  Marcos Casanova-Páez   : Triplet and SCS-CIS(D). UHF-(DLPNO)-IP/EA/STEOM-CCSD. UHF-CVS-IP/STEOM-CCSD   
  Vijay G. Chilkuri      : MRCI spin determinant printing, contributions to CSF-ICE 
  Pauline Colinet        : FMM embedding                                 
  Dipayan Datta          : RHF DLPNO-CCSD density                        
  Achintya Kumar Dutta   : EOM-CC, STEOM-CC                              
  Nicolas Foglia         : Exact transition moments, OPA infrastructure, MCD improvements    
  Dmitry Ganyushin       : Spin-Orbit,Spin-Spin,Magnetic field MRCI      
  Miquel Garcia-Rates    : C-PCM and meta-GGA Hessian, CCSD/C-PCM, Gaussian charge scheme 
  Tiago L. C. Gouveia    : GS-ROHF, GS-ROCIS                             
  Yang Guo               : DLPNO-NEVPT2, F12-NEVPT2, CIM, IAO-localization        
  Andreas Hansen         : Spin unrestricted coupled pair/coupled cluster methods 
  Ingolf Harden          : AUTO-CI MPn and infrastructure                
  Benjamin Helmich-Paris : MC-RPA, TRAH-(SCF,CASSCF), AVAS, COSX integrals, SCF dyn. polar., MC-PDFT, srDFT 
  Lee Huntington         : MR-EOM, pCC                                   
  Robert Izsak           : Overlap fitted RIJCOSX, COSX-SCS-MP3, EOM     
  Riya Kayal             : Wick's Theorem for AUTO-CI, AUTO-CI UHF-CCSDT 
  Emily Kempfer          : AUTO-CI RHF CISDT and CCSDT, approximate NEVPT4
  Christian Kollmar      : KDIIS, OOCD, Brueckner-CCSD(T), CCSD density, CASPT2, CASPT2-K, improved NEVPT2 
  Axel Koslowski         : Symmetry handling                             
  Simone Kossmann        : meta-GGA functionals, TD-DFT gradient, OOMP2, (MP2 Hessian; deprecated post 5.0) 
  Lucas Lang             : DCDCAS, Hyperfine gauge corrections, ICE-SOC+SSC
  Marvin Lechner         : AUTO-CI (C++ implementation), FIC-MRCC        
  Spencer Leger          : CASSCF response                               
  Dagmar Lenk            : GEPOL surface, SMD, ORCA-2-JSON               
  Dimitrios Liakos       : Extrapolation schemes; Compound Job, Property file
  Dimitrios Manganas     : Further ROCIS development; embedding schemes. LFT, Crystal Embedding 
  Dimitrios Pantazis     : SARC Basis sets                               
  Anastasios Papadopoulos: AUTO-CI, single reference methods and gradients 
  Taras Petrenko         : pre 6.0 DFT Hessian and TD-DFT gradient,  ECA, NRVS 
  Petra Pikulova         : Analytic Raman intensities                    
  Peter Pinski           : DLPNO-MP2, DLPNO-MP2 Gradient                 
  Shashank Vittal Rao    : ES-AILFT, MagRelax                            
  Christoph Reimann      : Effective Core Potentials                     
  Marius Retegan         : Local ZFS, SOC                                
  Christoph Riplinger    : Optimizer, TS searches, QM/MM, DLPNO-CCSD(T), (RO)-DLPNO pert. Triples 
  Michael Roemelt        : Original ROCIS implementation, recursive CI coupling coefficients
  Masaaki Saitow         : Open-shell DLPNO-CCSD energy and density      
  Barbara Sandhoefer     : DKH picture change effects                    
  Yorick L. A. Schmerwitz: GMF and freeze-and-release deltaSCF, NEB S-IDPP initial path                    
  Kantharuban Sivalingam : CASSCF convergence/infrastructure, NEVPT2, NEVPT3, NEVPT4(SD), FIC-MRCI and CEPA variants
  Bernardo de Souza      : ESD, SOC TD-DFT                               
  Georgi L. Stoychev     : AutoAux, RI-MP2 NMR, DLPNO-MP2 response, X2C  
  Van Anh Tran           : RI-MP2 g-tensors                              
  Willem Van den Heuvel  : Paramagnetic NMR                              
  Zikuan Wang            : NOTCH, Electric field optimization            
  Frank Wennmohs         : Technical directorship and infrastructure     
  Hang Xu                : AUTO-CI-Response properties                   
                                                                         
[FACCTs GmbH]                                                            
  Markus Bursch, Nicolas Foglia, Miquel Garcia-Rates, Ingolf Harden, Hagen Neugebauer, Anastasios Papadopoulos, 
  Christoph Riplinger, Bernardo de Souza, Georgi L. Stoychev                                                    
                                                                 
  APM, various basis sets, CI-OPT, improved COSX, DLPNO-Multilevel,           
  DOCKER, DRACO, updates on ESD, Fragmentator, GOAT, IRC, LR-CPCM, L-BFGS, MBIS, meta-GGA TD-DFT gradient, ML-optimized integration grids, 
  MM, NACMEs, nearIR, NEB, NEB-TS, NL-DFT gradient (VV10), 2- and 3-layer-ONIOM, interface openCOSMO-RS, QMMM,   
  Crystal-QMMM, RESP, rigid body optimization, SF, symmetry and pop. for TD-DFT, various functionals, SOLVATOR                                   
                                                                         
[Other institutions]                                                     
  V. Asgeirsson          : NEB                                           
  Christoph Bannwarth    : sTDA-DFT, sTD-DFT, PBEh-3c, B97-3c, D3        
  Giovanni Bistoni       : ETS/NOCV, ADLD/ADEX, COVALED                  
  Martin Brehm           : Molecular dynamics                            
  Ronald Cardenas        : ETS/NOCV                                      
  Martina Colucci        : COVALED                                       
  Sebastian Ehlert       : rSCAN, r2SCAN, r2SCAN-3c, D4, dhf basis sets  
  Marvin Friede          : D4 for Fr, Ra, Ac-Lr                          
  Lars Goerigk           : TD-DFT with DH, B97 family of functionals     
  Stefan Grimme          : VdW corrections, initial TS optimization, DFT functionals, gCP, sTDA/sTD-DF 
  Waldemar Hujo          : DFT-NL                                        
  H. Jonsson             : NEB                                           
  Holger Kruse           : gCP                                           
  Marcel Mueller         : wB97X-3c, vDZP basis set                      
  Hagen Neugebauer       : wr2SCAN, Native XTB                           
  Gianluca Regni         : ADLD/ADEX                                     
  Tobias Risthaus        : pre 6.0 range-separated hybrid DFT and stability analysis
  Lukas Wittmann         : regularized MP2, r2SCAN double-hybrids, wr2SCAN        
                                                                         
We gratefully acknowledge several colleagues who have allowed us to      
interface, adapt or use parts of their codes:                            
  Ed Valeev, F. Pavosevic, A. Kumar             : LibInt (2-el integral package), F12 methods 
  Garnet Chan, S. Sharma, J. Yang, R. Olivares  : DMRG                   
  Ulf Ekstrom                                   : XCFun DFT Library      
  Mihaly Kallay                                 : mrcc  (arbitrary order and MRCC methods)
  Frank Weinhold                                : gennbo (NPA and NBO analysis)           
  Simon Mueller                                 : openCOSMO-RS                            
  Christopher J. Cramer and Donald G. Truhlar   : smd solvation model                     
  S Lehtola, MJT Oliveira, MAL Marques          : LibXC Library                           
  Liviu Ungur et al                             : ANISO software                          


 Your calculation uses the libint2 library for the computation of 2-el integrals
 For citations please refer to: http://libint.valeyev.net

 Your ORCA version has been built with support for libXC version: 7.0.0
 For citations please refer to: https://libxc.gitlab.io

 This ORCA versions uses:
   CBLAS   interface :  Fast vector & matrix operations
   LAPACKE interface :  Fast linear algebra routines
   SCALAPACK package :  Parallel linear algebra routines
   Shared memory     :  Shared parallel matrices
   BLAS/LAPACK       :  OpenBLAS 0.3.29  USE64BITINT DYNAMIC_ARCH NO_AFFINITY Cooperlake SINGLE_THREADED
        Core in use  :  Cooperlake
   Copyright (c) 2011-2014, The OpenBLAS Project


  ***********************************
  * Starting time: Tue Jul 21 13:06:03 2026
  * Host name:     c1-35
  * Process ID:    1902897
  * Working dir.:  /cluster/projects/nn14654k/ylvaos/TPhP_bsse/orca/opt1_bp86_pme3
  ***********************************

================================================================================



################################################################################


                                COMPOUND JOB MainJOB 
Basename: 1b_pme3_Compound_0

################################################################################

================================================================================
                                       INPUT FILE
================================================================================
NAME = 1b_pme3_Compound_0.inp
|  1> #
|  2>  
|  3> #
|  4>  
|  5> 
|  6>                          ****END OF INPUT****
================================================================================
================================================================================



################################################################################


                                COMPOUND JOB  1 
Basename: 1b_pme3_Compound_1
NOTE: please remember that MaxCore and PAL settings will be ignored.

################################################################################

================================================================================
                                       INPUT FILE
================================================================================
NAME = 1b_pme3_Compound_1.inp
|  1>   ! BP86 def2-SVP VeryTightSCF defgrid3 NOAUTOSTART
|  2>   %id "def2svp"
|  3>   * xyzfile 0 1 opt1_pme3/1b_pme3_opt.xyz
|  4> 
|  5>                          ****END OF INPUT****
================================================================================


***************************************
The coordinates will be read from file: opt1_pme3/1b_pme3_opt.xyz
***************************************


Warning: RI is on but no J-basis has been assigned. Assigning Def2/J (nothing to worry about!)
================================================================================

cite the ECPs for Ru [Def2-ECP] as follows:
Ce-Yb(ecp-28): M. Dolg, H. Stoll, H.Preuss, J. Chem. Phys., 1989, 90, 1730-1734.
Y-Cd(ecp-28), Hf-Hg(ecp-46): D. Andrae,U. Haeussermann, M. Dolg, H. Stoll, H. Preuss, Theor. Chim. Acta, 1990, 77, 123-141.
In-Sb(ecp-28), Tl-Bi(ecp-46): B. Metz, H. Stoll, M. Dolg, J. Chem. Phys., 2000, 113, 2563-2569.
Te-Xe(ecp-28), Po-Rn(ecp-46): K. A. Peterson, D. Figgen, E. Goll, H. Stoll, M. Dolg, J. Chem. Phys., 2003, 119, 11113-11123.
Rb(ecp-28), Cs(ecp-46): T. Leininger, A. Nicklass, W. Kuechle, H. Stoll, M. Dolg, A. Bergner, Chem. Phys. Lett., 1996, 255, 274-280.
Sr(ecp-28), Ba(ecp-46): M. Kaupp, P. V. Schleyer, H. Stoll and H. Preuss, J. Chem. Phys., 1991, 94, 1360-1366.
La(ecp-46): M. Dolg, H. Stoll, A. Savin, H. Preuss, Theor. Chim. Acta, 1989, 75, 173-194.
Lu(ecp-28): X. Cao, M. Dolg, J. Chem. Phys., 2001, 115, 7348-7355.

ECP parameters for Ru [Def2-ECP] have been obtained from:
TURBOMOLE (7.0.2)

----- Orbital basis set information -----
Your calculation utilizes the basis: def2-SVP
   F. Weigend and R. Ahlrichs, Phys. Chem. Chem. Phys. 7, 3297 (2005).

----- AuxJ basis set information -----
Your calculation utilizes the auxiliary basis: def2/J
   H-Rn: F. Weigend, Phys. Chem. Chem. Phys. 8, 1057 (2006).
   Fr-Lr: K. Eichkorn, F. Weigend, O. Treutler, R. Ahlrichs; Theor. Chem. Acc. 97, 119 (1997).

================================================================================
                                        WARNINGS
                       Please study these warnings very carefully!
================================================================================



                       ****************************
                       * Single Point Calculation *
                       ****************************

---------------------------------
CARTESIAN COORDINATES (ANGSTROEM)
---------------------------------
  Ru     0.719137    1.496969    0.209857
  P      2.089534    2.819896   -1.052408
  P     -1.291106    0.598637    0.824657
  P      1.840740   -0.497372   -0.115772
  C     -1.536146   -0.014798    2.543750
  H      1.752175    1.933832    1.518633
  H      1.035732    1.544445    1.902406
  H     -0.078184    2.908491    0.431627
  H     -0.014022    1.387109   -1.240430
  H     -0.806433   -0.808767    2.762283
  H     -2.554768   -0.402776    2.707565
  H     -1.350205    0.816444    3.241196
  C      3.680810    3.424648   -0.350492
  H      4.312060    2.567603   -0.071535
  H      4.232201    4.066956   -1.056409
  H      3.463676    3.996838    0.564587
  C      1.330750    4.400557   -1.591594
  H      1.077513    4.991525   -0.699827
  H      0.392583    4.171581   -2.117311
  H      2.000240    4.979122   -2.248947
  C     -2.713983    1.745457    0.665916
  H     -3.670894    1.256041    0.910896
  H     -2.738581    2.125007   -0.365786
  H     -2.549902    2.603777    1.332973
  C     -1.920996   -0.832592   -0.147902
  H     -1.246133   -1.694887   -0.047817
  H     -1.951255   -0.544936   -1.209344
  H     -2.929615   -1.133051    0.178874
  C      2.653437    2.164209   -2.678547
  H      3.277210    1.269525   -2.540040
  H      3.232498    2.914993   -3.239875
  H      1.767265    1.874891   -3.262553
  C      1.570948   -1.853062    1.110588
  H      1.833949   -1.478154    2.112088
  H      0.510895   -2.144592    1.129368
  H      2.179212   -2.745147    0.888928
  C      1.563394   -1.407889   -1.691868
  H      2.144549   -2.342732   -1.749816
  H      1.836408   -0.754317   -2.533243
  H      0.492048   -1.636301   -1.789851
  C      3.687625   -0.467866   -0.066281
  H      4.078164    0.189980   -0.856275
  H      4.125257   -1.471394   -0.193744
  H      4.008937   -0.055520    0.903054

----------------------------
CARTESIAN COORDINATES (A.U.)
----------------------------
  NO LB      ZA    FRAG     MASS         X           Y           Z
   0 Ru   16.0000*   0   101.070    1.358973    2.828861    0.396572
   1 P    15.0000    0    30.974    3.948647    5.328832   -1.988763
   2 P    15.0000    0    30.974   -2.439837    1.131260    1.558376
   3 P    15.0000    0    30.974    3.478494   -0.939897   -0.218778
   4 C     6.0000    0    12.011   -2.902895   -0.027964    4.806991
   5 H     1.0000    0     1.008    3.311132    3.654413    2.869800
   6 H     1.0000    0     1.008    1.957249    2.918578    3.595026
   7 H     1.0000    0     1.008   -0.147745    5.496252    0.815657
   8 H     1.0000    0     1.008   -0.026498    2.621255   -2.344073
   9 H     1.0000    0     1.008   -1.523937   -1.528347    5.219958
  10 H     1.0000    0     1.008   -4.827812   -0.761137    5.116556
  11 H     1.0000    0     1.008   -2.551518    1.542856    6.124973
  12 C     6.0000    0    12.011    6.955723    6.471647   -0.662333
  13 H     1.0000    0     1.008    8.148612    4.852067   -0.135181
  14 H     1.0000    0     1.008    7.997701    7.685433   -1.996323
  15 H     1.0000    0     1.008    6.545398    7.552929    1.066914
  16 C     6.0000    0    12.011    2.514753    8.315848   -3.007677
  17 H     1.0000    0     1.008    2.036204    9.432616   -1.322481
  18 H     1.0000    0     1.008    0.741874    7.883146   -4.001139
  19 H     1.0000    0     1.008    3.779905    9.409177   -4.249894
  20 C     6.0000    0    12.011   -5.128685    3.298435    1.258399
  21 H     1.0000    0     1.008   -6.936984    2.373573    1.721344
  22 H     1.0000    0     1.008   -5.175167    4.015681   -0.691235
  23 H     1.0000    0     1.008   -4.818616    4.920426    2.518955
  24 C     6.0000    0    12.011   -3.630156   -1.573371   -0.279495
  25 H     1.0000    0     1.008   -2.354849   -3.202872   -0.090360
  26 H     1.0000    0     1.008   -3.687338   -1.029780   -2.285328
  27 H     1.0000    0     1.008   -5.536171   -2.141156    0.338022
  28 C     6.0000    0    12.011    5.014270    4.089763   -5.061720
  29 H     1.0000    0     1.008    6.193030    2.399054   -4.799979
  30 H     1.0000    0     1.008    6.108536    5.508539   -6.122477
  31 H     1.0000    0     1.008    3.339648    3.543030   -6.165331
  32 C     6.0000    0    12.011    2.968662   -3.501781    2.098706
  33 H     1.0000    0     1.008    3.465661   -2.793305    3.991268
  34 H     1.0000    0     1.008    0.965451   -4.052691    2.134197
  35 H     1.0000    0     1.008    4.118115   -5.187575    1.679830
  36 C     6.0000    0    12.011    2.954386   -2.660525   -3.197166
  37 H     1.0000    0     1.008    4.052610   -4.427121   -3.306674
  38 H     1.0000    0     1.008    3.470307   -1.425452   -4.787136
  39 H     1.0000    0     1.008    0.929836   -3.092161   -3.382329
  40 C     6.0000    0    12.011    6.968602   -0.884138   -0.125252
  41 H     1.0000    0     1.008    7.706614    0.359010   -1.618126
  42 H     1.0000    0     1.008    7.795607   -2.780531   -0.366123
  43 H     1.0000    0     1.008    7.575792   -0.104918    1.706525
* core charge reduced due to ECP

--------------------------------
INTERNAL COORDINATES (ANGSTROEM)
--------------------------------
 Ru     0   0   0     0.000000000000     0.00000000     0.00000000
 P      1   0   0     2.285046204231     0.00000000     0.00000000
 P      1   2   0     2.286057355432   154.61289362     0.00000000
 P      1   2   3     2.311151340068    97.51069763   124.97267635
 C      3   1   2     1.841636951156   119.92949079   204.71087042
 H      1   2   4     1.723633183372    85.02455423    91.36333766
 H      6   1   2     0.901218885721    74.77428051   167.74706471
 H      1   2   6     1.636245188805    82.39581617    88.95359120
 H      1   2   8     1.628780095464    79.46337565    89.04309265
 H      5   3   1     1.100283641753   109.72566722   300.54632662
 H      5   3   1     1.102249562648   112.26766933   178.88328445
 H      5   3   1     1.100894232686   108.50537175    58.18816464
 C      2   1   3     1.841350574316   119.85753179   154.89486813
 H     13   2   1     1.100372309477   109.66951127    59.49934480
 H     13   2   1     1.102229461732   112.30662769   181.14003779
 H     13   2   1     1.100870968222   108.48853167   301.88186928
 C      2   1   3     1.834383938470   114.40407864    35.11940535
 H     17   2   1     1.099373392829   108.66617740    61.83327242
 H     17   2   1     1.099530140130   108.30242012   305.16190230
 H     17   2   1     1.102300241052   112.10645485   183.58719847
 C      3   1   2     1.834386151012   114.40229573   324.48757484
 H     21   3   1     1.102370721318   112.11882366   176.40379554
 H     21   3   1     1.099578260876   108.32123020    54.81262075
 H     21   3   1     1.099364804011   108.65243837   298.14462673
 C      3   1   2     1.841480194033   117.65636168    81.52281577
 H     25   3   1     1.099550145207   110.57897427    63.48319367
 H     25   3   1     1.100145066557   108.40601718   305.21178354
 H     25   3   1     1.101985217247   111.61538267   184.64975329
 C      2   1   3     1.841803774037   117.72500686   278.10764835
 H     29   2   1     1.099425895870   110.62100272   296.08718468
 H     29   2   1     1.101851589895   111.59946985   174.93660705
 H     29   2   1     1.100031097092   108.40425562    54.39351453
 C      4   1   2     1.847875203856   117.95124044   159.00840446
 H     33   4   1     1.101239687598   108.59751392   302.95991010
 H     33   4   1     1.099570747100   110.27959410    60.82353642
 H     33   4   1     1.102239907441   112.31744415   182.25278998
 C      4   1   2     1.841206092262   118.30981209   280.44305668
 H     37   4   1     1.102283971516   112.64288683   179.86986637
 H     37   4   1     1.099821124189   108.88051291    58.27828511
 H     37   4   1     1.099797115939   109.00831736   301.54173301
 C      4   1   2     1.847783989249   117.87285229    41.63762484
 H     41   4   1     1.099714855463   110.19805309   299.14569913
 H     41   4   1     1.102196517262   112.28568603   177.81884998
 H     41   4   1     1.101307791702   108.73345248    57.02343770

---------------------------
INTERNAL COORDINATES (A.U.)
---------------------------
 Ru     0   0   0     0.000000000000     0.00000000     0.00000000
 P      1   0   0     4.318111529352     0.00000000     0.00000000
 P      1   2   0     4.320022328203   154.61289362     0.00000000
 P      1   2   3     4.367443086773    97.51069763   124.97267635
 C      3   1   2     3.480189475795   119.92949079   204.71087042
 H      1   2   4     3.257194671911    85.02455423    91.36333766
 H      6   1   2     1.703056880731    74.77428051   167.74706471
 H      1   2   6     3.092055294789    82.39581617    88.95359120
 H      1   2   8     3.077948312808    79.46337565    89.04309265
 H      5   3   1     2.079234752547   109.72566722   300.54632662
 H      5   3   1     2.082949804639   112.26766933   178.88328445
 H      5   3   1     2.080388602191   108.50537175    58.18816464
 C      2   1   3     3.479648301996   119.85753179   154.89486813
 H     13   2   1     2.079402310263   109.66951127    59.49934480
 H     13   2   1     2.082911819412   112.30662769   181.14003779
 H     13   2   1     2.080344638725   108.48853167   301.88186928
 C      2   1   3     3.466483268172   114.40407864    35.11940535
 H     17   2   1     2.077514631366   108.66617740    61.83327242
 H     17   2   1     2.077810840838   108.30242012   305.16190230
 H     17   2   1     2.083045572943   112.10645485   183.58719847
 C      3   1   2     3.466487449270   114.40229573   324.48757484
 H     21   3   1     2.083178761344   112.11882366   176.40379554
 H     21   3   1     2.077901775868   108.32123020    54.81262075
 H     21   3   1     2.077498400852   108.65243837   298.14462673
 C      3   1   2     3.479893247762   117.65636168    81.52281577
 H     25   3   1     2.077848644954   110.57897427    63.48319367
 H     25   3   1     2.078972883378   108.40601718   305.21178354
 H     25   3   1     2.082450264227   111.61538267   184.64975329
 C      2   1   3     3.480504725353   117.72500686   278.10764835
 H     29   2   1     2.077613847736   110.62100272   296.08718468
 H     29   2   1     2.082197745126   111.59946985   174.93660705
 H     29   2   1     2.078757512300   108.40425562    54.39351453
 C      4   1   2     3.491978064951   117.95124044   159.00840446
 H     33   4   1     2.081041417366   108.59751392   302.95991010
 H     33   4   1     2.077887576890   110.27959410    60.82353642
 H     33   4   1     2.082931558943   112.31744415   182.25278998
 C      4   1   2     3.479375270483   118.30981209   280.44305668
 H     37   4   1     2.083014827976   112.64288683   179.86986637
 H     37   4   1     2.078360721019   108.88051291    58.27828511
 H     37   4   1     2.078315352001   109.00831736   301.54173301
 C      4   1   2     3.491805694326   117.87285229    41.63762484
 H     41   4   1     2.078159902229   110.19805309   299.14569913
 H     41   4   1     2.082849563386   112.28568603   177.81884998
 H     41   4   1     2.081170115470   108.73345248    57.02343770

---------------------
BASIS SET INFORMATION
---------------------
There are 4 groups of distinct atoms

 Group   1 Type Ru  : 7s6p5d1f contracted to 5s3p2d1f pattern {31111/411/41/1}
 Group   2 Type P   : 10s7p1d contracted to 4s3p1d pattern {5311/511/1}
 Group   3 Type C   : 7s4p1d contracted to 3s2p1d pattern {511/31/1}
 Group   4 Type H   : 4s1p contracted to 2s1p pattern {31/1}

Atom   0Ru   basis set group =>   1
Atom   1P    basis set group =>   2
Atom   2P    basis set group =>   2
Atom   3P    basis set group =>   2
Atom   4C    basis set group =>   3
Atom   5H    basis set group =>   4
Atom   6H    basis set group =>   4
Atom   7H    basis set group =>   4
Atom   8H    basis set group =>   4
Atom   9H    basis set group =>   4
Atom  10H    basis set group =>   4
Atom  11H    basis set group =>   4
Atom  12C    basis set group =>   3
Atom  13H    basis set group =>   4
Atom  14H    basis set group =>   4
Atom  15H    basis set group =>   4
Atom  16C    basis set group =>   3
Atom  17H    basis set group =>   4
Atom  18H    basis set group =>   4
Atom  19H    basis set group =>   4
Atom  20C    basis set group =>   3
Atom  21H    basis set group =>   4
Atom  22H    basis set group =>   4
Atom  23H    basis set group =>   4
Atom  24C    basis set group =>   3
Atom  25H    basis set group =>   4
Atom  26H    basis set group =>   4
Atom  27H    basis set group =>   4
Atom  28C    basis set group =>   3
Atom  29H    basis set group =>   4
Atom  30H    basis set group =>   4
Atom  31H    basis set group =>   4
Atom  32C    basis set group =>   3
Atom  33H    basis set group =>   4
Atom  34H    basis set group =>   4
Atom  35H    basis set group =>   4
Atom  36C    basis set group =>   3
Atom  37H    basis set group =>   4
Atom  38H    basis set group =>   4
Atom  39H    basis set group =>   4
Atom  40C    basis set group =>   3
Atom  41H    basis set group =>   4
Atom  42H    basis set group =>   4
Atom  43H    basis set group =>   4
---------------------------------
AUXILIARY/J BASIS SET INFORMATION
---------------------------------
There are 4 groups of distinct atoms

 Group   1 Type Ru  : 11s5p5d3f3g contracted to 8s5p5d2f3g pattern {41111111/11111/11111/21/111}
 Group   2 Type P   : 14s5p5d2f1g contracted to 8s4p3d1f1g pattern {71111111/2111/311/2/1}
 Group   3 Type C   : 12s5p4d2f1g contracted to 6s4p3d1f1g pattern {711111/2111/211/2/1}
 Group   4 Type H   : 5s2p1d contracted to 3s1p1d pattern {311/2/1}

Atom   0Ru   basis set group =>   1
Atom   1P    basis set group =>   2
Atom   2P    basis set group =>   2
Atom   3P    basis set group =>   2
Atom   4C    basis set group =>   3
Atom   5H    basis set group =>   4
Atom   6H    basis set group =>   4
Atom   7H    basis set group =>   4
Atom   8H    basis set group =>   4
Atom   9H    basis set group =>   4
Atom  10H    basis set group =>   4
Atom  11H    basis set group =>   4
Atom  12C    basis set group =>   3
Atom  13H    basis set group =>   4
Atom  14H    basis set group =>   4
Atom  15H    basis set group =>   4
Atom  16C    basis set group =>   3
Atom  17H    basis set group =>   4
Atom  18H    basis set group =>   4
Atom  19H    basis set group =>   4
Atom  20C    basis set group =>   3
Atom  21H    basis set group =>   4
Atom  22H    basis set group =>   4
Atom  23H    basis set group =>   4
Atom  24C    basis set group =>   3
Atom  25H    basis set group =>   4
Atom  26H    basis set group =>   4
Atom  27H    basis set group =>   4
Atom  28C    basis set group =>   3
Atom  29H    basis set group =>   4
Atom  30H    basis set group =>   4
Atom  31H    basis set group =>   4
Atom  32C    basis set group =>   3
Atom  33H    basis set group =>   4
Atom  34H    basis set group =>   4
Atom  35H    basis set group =>   4
Atom  36C    basis set group =>   3
Atom  37H    basis set group =>   4
Atom  38H    basis set group =>   4
Atom  39H    basis set group =>   4
Atom  40C    basis set group =>   3
Atom  41H    basis set group =>   4
Atom  42H    basis set group =>   4
Atom  43H    basis set group =>   4
-------------------------
ECP PARAMETER INFORMATION
-------------------------

 Group 1, Type Ru ECP Def2-ECP (replacing 28 core electrons, lmax=3)

Atom   0Ru   ECP group =>   1

------------------------------------------------------------------------------
                             ORCA STARTUP CALCULATIONS
                           -- RI-GTO INTEGRALS CHOSEN --
------------------------------------------------------------------------------
------------------------------------------------------------------------------
                   ___                                                        
                  /   \      - P O W E R E D   B Y -                         
                 /     \                                                     
                 |  |  |   _    _      __       _____    __    __             
                 |  |  |  | |  | |    /  \     |  _  \  |  |  /  |          
                  \  \/   | |  | |   /    \    | | | |  |  | /  /          
                 / \  \   | |__| |  /  /\  \   | |_| |  |  |/  /          
                |  |  |   |  __  | /  /__\  \  |    /   |      \           
                |  |  |   | |  | | |   __   |  |    \   |  |\   \          
                \     /   | |  | | |  |  |  |  | |\  \  |  | \   \       
                 \___/    |_|  |_| |__|  |__|  |_| \__\ |__|  \__/        
                                                                              
                      - O R C A' S   B I G   F R I E N D -                    
                                      &                                       
                       - I N T E G R A L  F E E D E R -                       
                                                                              
 v1 FN, 2020, v2 2021, v3 2022-2024                                           
------------------------------------------------------------------------------


----------------------
SHARK INTEGRAL PACKAGE
----------------------

Number of atoms                             ...     44
Number of basis functions                   ...    366
Number of shells                            ...    182
Maximum angular momentum                    ...      3
Integral batch strategy                     ... SHARK/LIBINT Hybrid
RI-J (if used) integral strategy            ... SPLIT-RIJ (Revised 2003 algorithm where possible)
Printlevel                                  ...      1
Contraction scheme used                     ... SEGMENTED contraction
Prescreening option                         ... SCHWARTZ
   Thresh                                   ... 1.000e-12
   Tcut                                     ... 1.000e-14
   Tpresel                                  ... 1.000e-14 
Coulomb Range Separation                    ... NOT USED
Exchange Range Separation                   ... NOT USED
Multipole approximations                    ... NOT USED
Finite Nucleus Model                        ... NOT USED
CABS basis                                  ... NOT available
Auxiliary Coulomb fitting basis             ... AVAILABLE
   # of basis functions in Aux-J            ...   1024
   # of shells in Aux-J                     ...    364
   Maximum angular momentum in Aux-J        ...      4
Auxiliary J/K fitting basis                 ... NOT available
Auxiliary Correlation fitting basis         ... NOT available
Auxiliary 'external' fitting basis          ... NOT available

Checking pre-screening integrals            ... done (  0.0 sec) Dimension = 182
   => SHARK Basis and OBASIS are compatible. Storing Pre-screening
Shell pair information
Shell pair cut-off parameter TPreSel        ...   1.0e-14
Total number of shell pairs                 ...     16653
Shell pairs after pre-screening             ...     14309
Total number of primitive shell pairs       ...     56910
Primitive shell pairs kept                  ...     33443
          la=0 lb=0:   5090 shell pairs
          la=1 lb=0:   5508 shell pairs
          la=1 lb=1:   1479 shell pairs
          la=2 lb=0:   1276 shell pairs
          la=2 lb=1:    690 shell pairs
          la=2 lb=2:     84 shell pairs
          la=3 lb=0:    106 shell pairs
          la=3 lb=1:     61 shell pairs
          la=3 lb=2:     14 shell pairs
          la=3 lb=3:      1 shell pairs

Checking whether 4 symmetric matrices of dimension 366 fit in memory
:Max Core in MB      =   4096.00
 MB in use           =     20.96
 MB left             =   4075.04
 MB needed           =      2.05
 Data fit in memory  = YES
Calculating RI/J V-Matrix + Cholesky decomp.... done (  0.0 sec)
Calculating Nuclear repulsion               ... done (  0.0 sec) ENN=   1558.828639224372 Eh

Diagonalization of the overlap matrix:
Smallest eigenvalue                        ... 1.740e-03
Time for diagonalization                   ...    0.008 sec
Threshold for overlap eigenvalues          ... 1.000e-07
Number of eigenvalues below threshold      ... 0
Time for construction of square roots      ...    0.004 sec
Total time needed                          ...    0.014 sec

-------------------
DFT GRID GENERATION
-------------------

General Integration Accuracy     IntAcc      ... 4.959
Radial Grid Type                 RadialGrid  ... OptM3 with GC (2021)
Angular Grid (max. ang.)         AngularGrid ... 6 (Lebedev-590)
Angular grid pruning method      GridPruning ... 4 (adaptive)
Weight generation scheme         WeightScheme... mBecke (2022)
Basis function cutoff            BFCut       ... 1.0000e-12
Integration weight cutoff        WCut        ... 1.0000e-14
Partially contracted basis set               ... off
Rotationally invariant grid construction     ... off
Angular grids for H and He will be reduced by one unit

Total number of grid points                  ...   456000
Total number of batches                      ...     7145
Average number of points per batch           ...       63
Average number of grid points per atom       ...    10364
Grids setup in   5.2 sec
Initializing property integral containers    ... done (  0.0 sec)

SHARK setup successfully completed in   5.7 seconds

Maximum memory used throughout the entire STARTUP-calculation: 161.1 MB
-------------------------------------------------------------------------------
                                 ORCA GUESS
                   Start orbitals & Density for SCF / CASSCF
-------------------------------------------------------------------------------

------------
SCF SETTINGS
------------
Hamiltonian:
 Density Functional     Method          .... DFT(GTOs)
 Exchange Functional    Exchange        .... B88
   X-Alpha parameter    XAlpha          ....  0.666667
   Becke's b parameter  XBeta           ....  0.004200
 Correlation Functional Correlation     .... P86
 LDA part of GGA corr.  LDAOpt          .... PW91-LDA
 Gradients option       PostSCFGGA      .... off
   NL short-range parameter             ....  4.400000
 RI-approximation to the Coulomb term is turned on
   Number of AuxJ basis functions       .... 1024


General Settings:
 Integral files         IntName         .... 1b_pme3_Compound_1
 Hartree-Fock type      HFTyp           .... RHF
 Total Charge           Charge          ....    0
 Multiplicity           Mult            ....    1
 Number of Electrons    NEL             ....  146
 Basis Dimension        Dim             ....  366
 Nuclear Repulsion      ENuc            ....   1558.8286392244 Eh

Convergence Acceleration:
 AO-DIIS                CNVDIIS         .... on
   Start iteration      DIISMaxIt       ....    12
   Startup error        DIISStart       ....  0.200000
   # of expansion vecs  DIISMaxEq       ....     5
   Bias factor          DIISBfac        ....   1.050
   Max. coefficient     DIISMaxC        ....  10.000
 MO-DIIS                CNVKDIIS        .... off
 Trust-Rad. Augm. Hess. CNVTRAH         .... auto
   Auto Start mean grad. ratio tolernc. ....  1.125000
   Auto Start start iteration           ....    50
   Auto Start num. interpolation iter.  ....    10
   Max. Number of Micro iterations      ....    24
   Max. Number of Macro iterations      .... Maxiter - #DIIS iter
   Number of Davidson start vectors     ....     2
   Converg. threshold    (grad. norm)   ....   2.000e-06
   Grad. Scal. Fac. for Micro threshold ....   0.100
   Minimum threshold for Micro iter.    ....   1.000e-02
   NR start threshold (gradient norm)   ....   1.000e-04
   Initial trust radius                 ....   0.400
   Minimum AH scaling param. (alpha)    ....   1.000
   Maximum AH scaling param. (alpha)    .... 1000.000
   Quad. conv. algorithm                .... NR
   White noise on init. David. guess    .... on
   Maximum white noise                  ....   0.010
   Pseudo random numbers                .... off
   Inactive MOs                         .... canonical
   Orbital update algorithm             .... Taylor
   Preconditioner                       .... Diag
   Full preconditioner red. dimension   ....   250
 SOSCF                 CNVSOSCF           .... on
   Start iteration     SOSCFMaxIt         ....   150
   Startup grad/error  SOSCFStart         ....  0.003300
   Hessian update      SOSCFHessUp        .... L-BFGS
   Autom. constraints  SOSCFAutoConstrain .... off
 Level Shifting         CNVShift        .... on
   Level shift para.    LevelShift      ....    0.2500
   Turn off err/grad.   ShiftErr        ....    0.0010
 Zerner damping         CNVZerner       .... off
 Static damping         CNVDamp         .... on
   Fraction old density DampFac         ....    0.7000
   Max. Damping (<1)    DampMax         ....    0.9800
   Min. Damping (>=0)   DampMin         ....    0.0000
   Turn off err/grad.   DampErr         ....    0.1000

SCF Procedure:
 Maximum # iterations   MaxIter         ....   125
 SCF integral mode      SCFMode         .... Direct
   Integral package                     .... SHARK and LIBINT hybrid scheme
 Reset frequency        DirectResetFreq ....    20
 Integral Threshold     Thresh          ....  1.000e-12 Eh
 Primitive CutOff       TCut            ....  1.000e-14 Eh

Convergence Tolerance:
 Convergence Check Mode ConvCheckMode   .... Total+1el-Energy
 Convergence forced     ConvForced      .... 0
 Energy Change          TolE            ....  1.000e-09 Eh
 1-El. energy change                    ....  1.000e-06 Eh
 Orbital Gradient       TolG            ....  2.000e-06
 Orbital Rotation angle TolX            ....  2.000e-06
 DIIS Error             TolErr          ....  1.000e-08

------------------------------
INITIAL GUESS: MODEL POTENTIAL
------------------------------
Loading Hartree-Fock densities                     ... done
Atomic calculation to generate a density for atom 0 (Ru with ECP)
  Multiplicity assumed   :    5
  Atomic configuration   : 1s2 2s2 2p6 3s2 3p6 4s2 3d10 4p6 5s2 4d6 
  Number of open shells  : 1
  Command: /cluster/projects/nn14654k/ylvaos/orca_6_1_1_linux_x86-64_shared_openmpi418/orca 1b_pme3_Compound_1_atom44.inp "" > 1b_pme3_Compound_1_atom44.out
Returned from the atomic calculation with res=0
Calculating cut-offs                               ... done
Initializing the effective Hamiltonian             ... done
Setting up the integral package (SHARK)            ... done
Starting the Coulomb interaction                   ... done (   0.6 sec)
Making the grid                                    ... done (   0.4 sec)
Mapping shells                                     ... done
Starting the XC term evaluation                    ... done (   0.4 sec)
  promolecular density results
     # of electrons  =    173.991324771
     EX              =   -252.820350768
     EC              =     -7.576073350
     EX+EC           =   -260.396424118
Transforming the Hamiltonian                       ... done (   0.0 sec)
Diagonalizing the Hamiltonian                      ... done (   0.0 sec)
Back transforming the eigenvectors                 ... done (   0.0 sec)
Now organizing SCF variables                       ... done
                      ------------------
                      INITIAL GUESS DONE (   2.6 sec)
                      ------------------
             **** ENERGY FILE WAS UPDATED (1b_pme3_Compound_1.en.tmp) ****
Finished Guess after   2.6 sec
Maximum memory used throughout the entire GUESS-calculation: 34.8 MB

-------------------------------------------------------------------------------------------
                                      ORCA LEAN-SCF
                              memory conserving SCF solver
-------------------------------------------------------------------------------------------

----------------------------------------D-I-I-S--------------------------------------------
Iteration    Energy (Eh)           Delta-E    RMSDP     MaxDP     DIISErr   Damp  Time(sec)
-------------------------------------------------------------------------------------------
               ***  Starting incremental Fock matrix formation  ***
    1    -1479.8129101332981463     0.00e+00  2.40e-03  8.28e-02  4.71e-01  0.700   4.6
    2    -1480.0595352317820925    -2.47e-01  1.63e-03  4.74e-02  3.16e-01  0.700   4.0
    3    -1480.1439961367984779    -8.45e-02  7.73e-04  1.90e-02  2.17e-01  0.700   4.2
                               ***Turning on AO-DIIS***
    4    -1480.1909144761136758    -4.69e-02  3.39e-04  1.73e-02  1.54e-01  0.700   3.8
    5    -1480.2258657494428462    -3.50e-02  1.69e-04  1.26e-02  1.07e-01  0.700   3.7
    6    -1480.2505824775423662    -2.47e-02  1.04e-04  6.95e-03  7.48e-02  0.700   3.6
    7    -1480.2679253378521480    -1.73e-02  2.41e-04  2.11e-02  5.29e-02  0.000   3.7
                              *** Initializing SOSCF ***
---------------------------------------S-O-S-C-F--------------------------------------
Iteration    Energy (Eh)           Delta-E    RMSDP     MaxDP     MaxGrad    Time(sec)
--------------------------------------------------------------------------------------
    8    -1480.3081041837356224    -4.02e-02  3.64e-05  2.25e-03  7.36e-04     3.8
               *** Restarting incremental Fock matrix formation ***
    9    -1480.3081073057808226    -3.12e-06  9.83e-05  7.00e-03  6.50e-04     4.8
   10    -1480.3079497814198930     1.58e-04  8.42e-05  5.94e-03  3.09e-03     3.4
   11    -1480.3081149356423794    -1.65e-04  1.75e-05  6.88e-04  7.37e-05     3.4
   12    -1480.3081130444927567     1.89e-06  1.15e-05  5.09e-04  1.31e-04     3.2
   13    -1480.3081158891193354    -2.84e-06  2.96e-06  1.30e-04  1.41e-05     3.2
   14    -1480.3081158402890196     4.88e-08  1.90e-06  8.21e-05  2.70e-05     3.0
   15    -1480.3081159074165498    -6.71e-08  3.42e-07  9.64e-06  1.86e-06     3.0
   16    -1480.3081159074333755    -1.68e-11  1.88e-07  6.13e-06  2.53e-06     2.8
                 **** Energy Check signals convergence ****

               *****************************************************
               *                     SUCCESS                       *
               *           SCF CONVERGED AFTER  16 CYCLES          *
               *****************************************************

             **** ENERGY FILE WAS UPDATED (1b_pme3_Compound_1.en.tmp) ****

----------------
TOTAL SCF ENERGY
----------------

Total Energy       :      -1480.30811590819417 Eh          -40281.23169 eV

Components:
Nuclear Repulsion  :       1558.82863922437195 Eh           42417.88376 eV
Electronic Energy  :      -3039.13675513256612 Eh          -82699.11545 eV
One Electron Energy:      -5171.25295224961428 Eh         -140716.94674 eV
Two Electron Energy:       2132.11619711704816 Eh           58017.83129 eV

Virial components:
Potential Energy   :      -2890.81992032413928 Eh          -78663.20919 eV
Kinetic Energy     :       1410.51180441594511 Eh           38381.97750 eV
Virial Ratio       :          2.04948296871656

DFT components:
N(Alpha)           :       73.000039546912 electrons
N(Beta)            :       73.000039546912 electrons
N(Total)           :      146.000079093824 electrons
E(X)               :     -134.789080416448 Eh       
E(C)               :       -5.673304084153 Eh       
E(XC)              :     -140.462384500601 Eh       

---------------
SCF CONVERGENCE
---------------

  Last Energy change         ...    1.6826e-11  Tolerance :   1.0000e-09
  Last MAX-Density change    ...    6.1340e-06  Tolerance :   1.0000e-08
  Last RMS-Density change    ...    1.8807e-07  Tolerance :   1.0000e-09
  Last DIIS Error            ...    7.3646e-04  Tolerance :   1.0000e-08
  Last Orbital Gradient      ...    2.5266e-06  Tolerance :   2.0000e-06
  Last Orbital Rotation      ...    4.5968e-06  Tolerance :   2.0000e-06


----------------
ORBITAL ENERGIES
----------------

  NO   OCC          E(Eh)            E(eV) 
   0   2.0000     -76.357460     -2077.7921 
   1   2.0000     -76.357316     -2077.7882 
   2   2.0000     -76.350981     -2077.6158 
   3   2.0000      -9.905287      -269.5366 
   4   2.0000      -9.905120      -269.5320 
   5   2.0000      -9.904950      -269.5274 
   6   2.0000      -9.904918      -269.5265 
   7   2.0000      -9.904790      -269.5230 
   8   2.0000      -9.904620      -269.5184 
   9   2.0000      -9.901815      -269.4421 
  10   2.0000      -9.897738      -269.3311 
  11   2.0000      -9.897554      -269.3261 
  12   2.0000      -6.321181      -172.0081 
  13   2.0000      -6.321008      -172.0034 
  14   2.0000      -6.314382      -171.8231 
  15   2.0000      -4.543042      -123.6225 
  16   2.0000      -4.542863      -123.6176 
  17   2.0000      -4.542668      -123.6123 
  18   2.0000      -4.542500      -123.6077 
  19   2.0000      -4.539833      -123.5351 
  20   2.0000      -4.539664      -123.5305 
  21   2.0000      -4.536097      -123.4335 
  22   2.0000      -4.536011      -123.4311 
  23   2.0000      -4.532987      -123.3488 
  24   2.0000      -2.816718       -76.6468 
  25   2.0000      -1.701697       -46.3055 
  26   2.0000      -1.697287       -46.1855 
  27   2.0000      -1.689227       -45.9662 
  28   2.0000      -0.692014       -18.8307 
  29   2.0000      -0.688336       -18.7306 
  30   2.0000      -0.685174       -18.6445 
  31   2.0000      -0.616914       -16.7871 
  32   2.0000      -0.616317       -16.7708 
  33   2.0000      -0.615009       -16.7352 
  34   2.0000      -0.612644       -16.6709 
  35   2.0000      -0.610421       -16.6104 
  36   2.0000      -0.609046       -16.5730 
  37   2.0000      -0.487822       -13.2743 
  38   2.0000      -0.476571       -12.9682 
  39   2.0000      -0.475974       -12.9519 
  40   2.0000      -0.412440       -11.2231 
  41   2.0000      -0.397701       -10.8220 
  42   2.0000      -0.394800       -10.7430 
  43   2.0000      -0.386716       -10.5231 
  44   2.0000      -0.383559       -10.4372 
  45   2.0000      -0.382850       -10.4179 
  46   2.0000      -0.377260       -10.2658 
  47   2.0000      -0.376472       -10.2443 
  48   2.0000      -0.372443       -10.1347 
  49   2.0000      -0.370670       -10.0865 
  50   2.0000      -0.355980        -9.6867 
  51   2.0000      -0.353947        -9.6314 
  52   2.0000      -0.351888        -9.5753 
  53   2.0000      -0.350598        -9.5402 
  54   2.0000      -0.349040        -9.4978 
  55   2.0000      -0.347612        -9.4590 
  56   2.0000      -0.338651        -9.2152 
  57   2.0000      -0.335550        -9.1308 
  58   2.0000      -0.334199        -9.0940 
  59   2.0000      -0.298086        -8.1113 
  60   2.0000      -0.293291        -7.9809 
  61   2.0000      -0.292006        -7.9459 
  62   2.0000      -0.290128        -7.8948 
  63   2.0000      -0.287778        -7.8308 
  64   2.0000      -0.285424        -7.7668 
  65   2.0000      -0.283366        -7.7108 
  66   2.0000      -0.272071        -7.4034 
  67   2.0000      -0.223489        -6.0814 
  68   2.0000      -0.223300        -6.0763 
  69   2.0000      -0.185505        -5.0479 
  70   2.0000      -0.179525        -4.8851 
  71   2.0000      -0.159684        -4.3452 
  72   2.0000      -0.151056        -4.1105 
  73   0.0000       0.007562         0.2058 
  74   0.0000       0.023199         0.6313 
  75   0.0000       0.027753         0.7552 
  76   0.0000       0.030223         0.8224 
  77   0.0000       0.048327         1.3150 
  78   0.0000       0.048972         1.3326 
  79   0.0000       0.052078         1.4171 
  80   0.0000       0.052811         1.4371 
  81   0.0000       0.060017         1.6331 
  82   0.0000       0.060830         1.6553 
  83   0.0000       0.066118         1.7992 
*Only the first 10 virtual orbitals were printed.

                    ********************************
                    * MULLIKEN POPULATION ANALYSIS *
                    ********************************

-----------------------
MULLIKEN ATOMIC CHARGES
-----------------------
   0 Ru:   -0.780569
   1 P :    0.192191
   2 P :    0.191192
   3 P :    0.153454
   4 C :   -0.137814
   5 H :    0.033507
   6 H :    0.038970
   7 H :   -0.044530
   8 H :   -0.024692
   9 H :    0.051753
  10 H :    0.034877
  11 H :    0.069111
  12 C :   -0.137906
  13 H :    0.051216
  14 H :    0.034704
  15 H :    0.069664
  16 C :   -0.119277
  17 H :    0.072548
  18 H :    0.078656
  19 H :    0.028374
  20 C :   -0.119241
  21 H :    0.028185
  22 H :    0.078822
  23 H :    0.072770
  24 C :   -0.135276
  25 H :    0.050016
  26 H :    0.076596
  27 H :    0.035530
  28 C :   -0.135032
  29 H :    0.049542
  30 H :    0.035302
  31 H :    0.076981
  32 C :   -0.139933
  33 H :    0.065168
  34 H :    0.048516
  35 H :    0.032717
  36 C :   -0.117097
  37 H :    0.030640
  38 H :    0.052428
  39 H :    0.052237
  40 C :   -0.139955
  41 H :    0.048221
  42 H :    0.032688
  43 H :    0.064747
Sum of atomic charges:    0.0000000

--------------------------------
MULLIKEN REDUCED ORBITAL CHARGES
--------------------------------
  0 Rus       :     2.598534  s :     2.598534
      pz      :     2.293327  p :     6.862945
      px      :     2.265090
      py      :     2.304527
      dz2     :     1.319208  d :     7.312307
      dxz     :     1.377047
      dyz     :     1.695050
      dx2y2   :     1.578791
      dxy     :     1.342210
      f0      :     0.001071  f :     0.006784
      f+1     :     0.001537
      f-1     :     0.000631
      f+2     :     0.000459
      f-2     :     0.001051
      f+3     :     0.001217
      f-3     :     0.000817

  1 P s       :     5.494356  s :     5.494356
      pz      :     3.009497  p :     9.048824
      px      :     2.999033
      py      :     3.040294
      dz2     :     0.057109  d :     0.264629
      dxz     :     0.051028
      dyz     :     0.046904
      dx2y2   :     0.057497
      dxy     :     0.052091

  2 P s       :     5.495620  s :     5.495620
      pz      :     2.913499  p :     9.048828
      px      :     3.187281
      py      :     2.948049
      dz2     :     0.057697  d :     0.264360
      dxz     :     0.041119
      dyz     :     0.055019
      dx2y2   :     0.041399
      dxy     :     0.069125

  3 P s       :     5.534076  s :     5.534076
      pz      :     2.907370  p :     9.052627
      px      :     2.984575
      py      :     3.160682
      dz2     :     0.045799  d :     0.259842
      dxz     :     0.027701
      dyz     :     0.081905
      dx2y2   :     0.073824
      dxy     :     0.030613

  4 C s       :     3.057480  s :     3.057480
      pz      :     1.026282  p :     3.060834
      px      :     1.003143
      py      :     1.031408
      dz2     :     0.004176  d :     0.019501
      dxz     :     0.002034
      dyz     :     0.004741
      dx2y2   :     0.003215
      dxy     :     0.005335

  5 H s       :     0.943969  s :     0.943969
      pz      :     0.006014  p :     0.022524
      px      :     0.009961
      py      :     0.006549

  6 H s       :     0.938467  s :     0.938467
      pz      :     0.007566  p :     0.022563
      px      :     0.008859
      py      :     0.006139

  7 H s       :     1.032404  s :     1.032404
      pz      :     0.003196  p :     0.012126
      px      :     0.003759
      py      :     0.005171

  8 H s       :     1.010804  s :     1.010804
      pz      :     0.005608  p :     0.013888
      px      :     0.004161
      py      :     0.004120

  9 H s       :     0.924847  s :     0.924847
      pz      :     0.005404  p :     0.023400
      px      :     0.008800
      py      :     0.009196

 10 H s       :     0.942196  s :     0.942196
      pz      :     0.005092  p :     0.022926
      px      :     0.011783
      py      :     0.006051

 11 H s       :     0.907664  s :     0.907664
      pz      :     0.008076  p :     0.023224
      px      :     0.005484
      py      :     0.009664

 12 C s       :     3.057196  s :     3.057196
      pz      :     1.020348  p :     3.061205
      px      :     1.018398
      py      :     1.022459
      dz2     :     0.002920  d :     0.019506
      dxz     :     0.003725
      dyz     :     0.005342
      dx2y2   :     0.001866
      dxy     :     0.005653

 13 H s       :     0.925400  s :     0.925400
      pz      :     0.005861  p :     0.023384
      px      :     0.007489
      py      :     0.010035

 14 H s       :     0.942371  s :     0.942371
      pz      :     0.008220  p :     0.022925
      px      :     0.006935
      py      :     0.007770

 15 H s       :     0.907113  s :     0.907113
      pz      :     0.010640  p :     0.023223
      px      :     0.005358
      py      :     0.007225

 16 C s       :     3.054640  s :     3.054640
      pz      :     1.024660  p :     3.045191
      px      :     1.016590
      py      :     1.003942
      dz2     :     0.002052  d :     0.019445
      dxz     :     0.004989
      dyz     :     0.005387
      dx2y2   :     0.003110
      dxy     :     0.003908

 17 H s       :     0.904049  s :     0.904049
      pz      :     0.010567  p :     0.023403
      px      :     0.005802
      py      :     0.007034

 18 H s       :     0.897984  s :     0.897984
      pz      :     0.006747  p :     0.023360
      px      :     0.011218
      py      :     0.005395

 19 H s       :     0.948719  s :     0.948719
      pz      :     0.007893  p :     0.022907
      px      :     0.007838
      py      :     0.007176

 20 C s       :     3.054499  s :     3.054499
      pz      :     1.045738  p :     3.045299
      px      :     0.982380
      py      :     1.017182
      dz2     :     0.004914  d :     0.019443
      dxz     :     0.001346
      dyz     :     0.004743
      dx2y2   :     0.003644
      dxy     :     0.004796

 21 H s       :     0.948909  s :     0.948909
      pz      :     0.005523  p :     0.022906
      px      :     0.010930
      py      :     0.006453

 22 H s       :     0.897824  s :     0.897824
      pz      :     0.012182  p :     0.023354
      px      :     0.004939
      py      :     0.006233

 23 H s       :     0.903830  s :     0.903830
      pz      :     0.007984  p :     0.023399
      px      :     0.005225
      py      :     0.010190

 24 C s       :     3.054506  s :     3.054506
      pz      :     1.036154  p :     3.061255
      px      :     1.006331
      py      :     1.018770
      dz2     :     0.005981  d :     0.019515
      dxz     :     0.001770
      dyz     :     0.002816
      dx2y2   :     0.003298
      dxy     :     0.005650

 25 H s       :     0.926218  s :     0.926218
      pz      :     0.005536  p :     0.023766
      px      :     0.008512
      py      :     0.009718

 26 H s       :     0.900170  s :     0.900170
      pz      :     0.012406  p :     0.023234
      px      :     0.005131
      py      :     0.005697

 27 H s       :     0.941497  s :     0.941497
      pz      :     0.005702  p :     0.022973
      px      :     0.011702
      py      :     0.005569

 28 C s       :     3.054114  s :     3.054114
      pz      :     1.025410  p :     3.061398
      px      :     1.023535
      py      :     1.012453
      dz2     :     0.003054  d :     0.019519
      dxz     :     0.004940
      dyz     :     0.003712
      dx2y2   :     0.002055
      dxy     :     0.005758

 29 H s       :     0.926687  s :     0.926687
      pz      :     0.005450  p :     0.023772
      px      :     0.007781
      py      :     0.010540

 30 H s       :     0.941715  s :     0.941715
      pz      :     0.007032  p :     0.022983
      px      :     0.007206
      py      :     0.008744

 31 H s       :     0.899785  s :     0.899785
      pz      :     0.006952  p :     0.023235
      px      :     0.010506
      py      :     0.005776

 32 C s       :     3.057321  s :     3.057321
      pz      :     1.030727  p :     3.062883
      px      :     1.023778
      py      :     1.008378
      dz2     :     0.005488  d :     0.019729
      dxz     :     0.001337
      dyz     :     0.003877
      dx2y2   :     0.004444
      dxy     :     0.004585

 33 H s       :     0.911680  s :     0.911680
      pz      :     0.011388  p :     0.023152
      px      :     0.005703
      py      :     0.006061

 34 H s       :     0.927746  s :     0.927746
      pz      :     0.005459  p :     0.023738
      px      :     0.012561
      py      :     0.005718

 35 H s       :     0.944334  s :     0.944334
      pz      :     0.005331  p :     0.022949
      px      :     0.007507
      py      :     0.010111

 36 C s       :     3.043795  s :     3.043795
      pz      :     1.027492  p :     3.053714
      px      :     1.024115
      py      :     1.002107
      dz2     :     0.004431  d :     0.019588
      dxz     :     0.001448
      dyz     :     0.005071
      dx2y2   :     0.004529
      dxy     :     0.004109

 37 H s       :     0.946483  s :     0.946483
      pz      :     0.005001  p :     0.022878
      px      :     0.007227
      py      :     0.010650

 38 H s       :     0.924058  s :     0.924058
      pz      :     0.009574  p :     0.023515
      px      :     0.005838
      py      :     0.008103

 39 H s       :     0.924247  s :     0.924247
      pz      :     0.005287  p :     0.023516
      px      :     0.012720
      py      :     0.005509

 40 C s       :     3.057309  s :     3.057309
      pz      :     1.032368  p :     3.062919
      px      :     1.023956
      py      :     1.006595
      dz2     :     0.004304  d :     0.019726
      dxz     :     0.002567
      dyz     :     0.004485
      dx2y2   :     0.003972
      dxy     :     0.004398

 41 H s       :     0.928040  s :     0.928040
      pz      :     0.009389  p :     0.023740
      px      :     0.006049
      py      :     0.008302

 42 H s       :     0.944365  s :     0.944365
      pz      :     0.005175  p :     0.022947
      px      :     0.006165
      py      :     0.011608

 43 H s       :     0.912111  s :     0.912111
      pz      :     0.011136  p :     0.023142
      px      :     0.005613
      py      :     0.006392



                     *******************************
                     * LOEWDIN POPULATION ANALYSIS *
                     *******************************

----------------------
LOEWDIN ATOMIC CHARGES
----------------------
   0 Ru:   -1.771788
   1 P :    0.880740
   2 P :    0.880437
   3 P :    0.835632
   4 C :   -0.210014
   5 H :    0.097914
   6 H :    0.099518
   7 H :   -0.027091
   8 H :   -0.018432
   9 H :    0.034472
  10 H :    0.024356
  11 H :    0.041296
  12 C :   -0.210059
  13 H :    0.034489
  14 H :    0.024301
  15 H :    0.041491
  16 C :   -0.197754
  17 H :    0.042864
  18 H :    0.044969
  19 H :    0.020532
  20 C :   -0.197829
  21 H :    0.020606
  22 H :    0.045022
  23 H :    0.042937
  24 C :   -0.205809
  25 H :    0.028158
  26 H :    0.042702
  27 H :    0.025595
  28 C :   -0.205947
  29 H :    0.028077
  30 H :    0.025567
  31 H :    0.042581
  32 C :   -0.211422
  33 H :    0.037867
  34 H :    0.026721
  35 H :    0.023404
  36 C :   -0.207716
  37 H :    0.022022
  38 H :    0.036530
  39 H :    0.036349
  40 C :   -0.211233
  41 H :    0.026875
  42 H :    0.023387
  43 H :    0.037685

-------------------------------
LOEWDIN REDUCED ORBITAL CHARGES
-------------------------------
  0 Rus       :     2.479877  s :     2.479877
      pz      :     2.465814  p :     7.513622
      px      :     2.516659
      py      :     2.531149
      dz2     :     1.437499  d :     7.766561
      dxz     :     1.483269
      dyz     :     1.726792
      dx2y2   :     1.646702
      dxy     :     1.472300
      f0      :     0.001832  f :     0.011728
      f+1     :     0.002718
      f-1     :     0.001093
      f+2     :     0.000783
      f-2     :     0.001776
      f+3     :     0.002170
      f-3     :     0.001356

  1 P s       :     5.045341  s :     5.045341
      pz      :     2.908212  p :     8.726457
      px      :     2.890510
      py      :     2.927735
      dz2     :     0.074689  d :     0.347462
      dxz     :     0.067524
      dyz     :     0.061595
      dx2y2   :     0.074674
      dxy     :     0.068980

  2 P s       :     5.045754  s :     5.045754
      pz      :     2.834632  p :     8.726802
      px      :     3.034375
      py      :     2.857795
      dz2     :     0.077223  d :     0.347006
      dxz     :     0.050204
      dyz     :     0.073219
      dx2y2   :     0.051694
      dxy     :     0.094666

  3 P s       :     5.066041  s :     5.066041
      pz      :     2.835385  p :     8.751838
      px      :     2.892874
      py      :     3.023578
      dz2     :     0.060513  d :     0.346489
      dxz     :     0.031739
      dyz     :     0.115013
      dx2y2   :     0.102071
      dxy     :     0.037153

  4 C s       :     2.899435  s :     2.899435
      pz      :     1.095733  p :     3.257586
      px      :     1.077329
      py      :     1.084524
      dz2     :     0.012213  d :     0.052993
      dxz     :     0.004680
      dyz     :     0.012987
      dx2y2   :     0.008727
      dxy     :     0.014385

  5 H s       :     0.830948  s :     0.830948
      pz      :     0.024961  p :     0.071137
      px      :     0.029133
      py      :     0.017043

  6 H s       :     0.829154  s :     0.829154
      pz      :     0.016845  p :     0.071328
      px      :     0.036223
      py      :     0.018260

  7 H s       :     0.986038  s :     0.986038
      pz      :     0.011487  p :     0.041054
      px      :     0.013006
      py      :     0.016560

  8 H s       :     0.977114  s :     0.977114
      pz      :     0.016203  p :     0.041317
      px      :     0.012287
      py      :     0.012827

  9 H s       :     0.896468  s :     0.896468
      pz      :     0.016668  p :     0.069060
      px      :     0.024981
      py      :     0.027411

 10 H s       :     0.906760  s :     0.906760
      pz      :     0.015960  p :     0.068884
      px      :     0.036458
      py      :     0.016466

 11 H s       :     0.889972  s :     0.889972
      pz      :     0.027062  p :     0.068732
      px      :     0.013094
      py      :     0.028576

 12 C s       :     2.899432  s :     2.899432
      pz      :     1.086020  p :     3.257623
      px      :     1.089248
      py      :     1.082355
      dz2     :     0.007588  d :     0.053003
      dxz     :     0.010178
      dyz     :     0.014639
      dx2y2   :     0.005149
      dxy     :     0.015450

 13 H s       :     0.896507  s :     0.896507
      pz      :     0.015409  p :     0.069004
      px      :     0.023905
      py      :     0.029689

 14 H s       :     0.906815  s :     0.906815
      pz      :     0.023535  p :     0.068885
      px      :     0.022605
      py      :     0.022745

 15 H s       :     0.889768  s :     0.889768
      pz      :     0.033336  p :     0.068742
      px      :     0.015237
      py      :     0.020169

 16 C s       :     2.897505  s :     2.897505
      pz      :     1.082870  p :     3.247244
      px      :     1.083418
      py      :     1.080955
      dz2     :     0.005410  d :     0.053006
      dxz     :     0.013637
      dyz     :     0.014706
      dx2y2   :     0.008416
      dxy     :     0.010836

 17 H s       :     0.888042  s :     0.888042
      pz      :     0.031603  p :     0.069094
      px      :     0.015234
      py      :     0.022256

 18 H s       :     0.885994  s :     0.885994
      pz      :     0.018568  p :     0.069037
      px      :     0.035187
      py      :     0.015282

 19 H s       :     0.911051  s :     0.911051
      pz      :     0.023041  p :     0.068417
      px      :     0.022335
      py      :     0.023041

 20 C s       :     2.897542  s :     2.897542
      pz      :     1.089762  p :     3.247289
      px      :     1.071971
      py      :     1.085557
      dz2     :     0.013715  d :     0.052998
      dxz     :     0.003159
      dyz     :     0.012847
      dx2y2   :     0.009160
      dxy     :     0.014117

 21 H s       :     0.910984  s :     0.910984
      pz      :     0.013928  p :     0.068410
      px      :     0.036412
      py      :     0.018070

 22 H s       :     0.885950  s :     0.885950
      pz      :     0.038056  p :     0.069029
      px      :     0.013059
      py      :     0.017913

 23 H s       :     0.887971  s :     0.887971
      pz      :     0.022745  p :     0.069092
      px      :     0.013772
      py      :     0.032575

 24 C s       :     2.896832  s :     2.896832
      pz      :     1.092379  p :     3.256008
      px      :     1.076938
      py      :     1.086692
      dz2     :     0.015818  d :     0.052969
      dxz     :     0.004729
      dyz     :     0.008278
      dx2y2   :     0.008950
      dxy     :     0.015193

 25 H s       :     0.902059  s :     0.902059
      pz      :     0.014406  p :     0.069784
      px      :     0.023517
      py      :     0.031861

 26 H s       :     0.887945  s :     0.887945
      pz      :     0.040951  p :     0.069353
      px      :     0.012415
      py      :     0.015987

 27 H s       :     0.905506  s :     0.905506
      pz      :     0.015390  p :     0.068899
      px      :     0.036812
      py      :     0.016697

 28 C s       :     2.896828  s :     2.896828
      pz      :     1.093233  p :     3.256145
      px      :     1.082244
      py      :     1.080668
      dz2     :     0.008621  d :     0.052974
      dxz     :     0.013348
      dyz     :     0.010029
      dx2y2   :     0.005320
      dxy     :     0.015656

 29 H s       :     0.902113  s :     0.902113
      pz      :     0.015487  p :     0.069810
      px      :     0.021982
      py      :     0.032341

 30 H s       :     0.905503  s :     0.905503
      pz      :     0.023161  p :     0.068930
      px      :     0.020737
      py      :     0.025032

 31 H s       :     0.888040  s :     0.888040
      pz      :     0.022762  p :     0.069379
      px      :     0.031357
      py      :     0.015259

 32 C s       :     2.900111  s :     2.900111
      pz      :     1.093588  p :     3.257936
      px      :     1.078906
      py      :     1.085441
      dz2     :     0.014243  d :     0.053375
      dxz     :     0.003384
      dyz     :     0.011625
      dx2y2   :     0.011903
      dxy     :     0.012220

 33 H s       :     0.893324  s :     0.893324
      pz      :     0.037981  p :     0.068809
      px      :     0.014230
      py      :     0.016598

 34 H s       :     0.903540  s :     0.903540
      pz      :     0.014731  p :     0.069739
      px      :     0.039213
      py      :     0.015795

 35 H s       :     0.907542  s :     0.907542
      pz      :     0.014561  p :     0.069054
      px      :     0.020702
      py      :     0.033791

 36 C s       :     2.896945  s :     2.896945
      pz      :     1.096298  p :     3.257467
      px      :     1.083350
      py      :     1.077819
      dz2     :     0.012263  d :     0.053304
      dxz     :     0.003444
      dyz     :     0.014318
      dx2y2   :     0.011972
      dxy     :     0.011307

 37 H s       :     0.909054  s :     0.909054
      pz      :     0.014895  p :     0.068924
      px      :     0.019970
      py      :     0.034059

 38 H s       :     0.894287  s :     0.894287
      pz      :     0.032003  p :     0.069183
      px      :     0.014393
      py      :     0.022788

 39 H s       :     0.894452  s :     0.894452
      pz      :     0.015504  p :     0.069200
      px      :     0.039898
      py      :     0.013798

 40 C s       :     2.900123  s :     2.900123
      pz      :     1.081234  p :     3.257743
      px      :     1.098960
      py      :     1.077550
      dz2     :     0.012381  d :     0.053366
      dxz     :     0.006301
      dyz     :     0.011983
      dx2y2   :     0.012042
      dxy     :     0.010659

 41 H s       :     0.903395  s :     0.903395
      pz      :     0.027375  p :     0.069730
      px      :     0.019396
      py      :     0.022959

 42 H s       :     0.907556  s :     0.907556
      pz      :     0.012807  p :     0.069057
      px      :     0.020933
      py      :     0.035317

 43 H s       :     0.893538  s :     0.893538
      pz      :     0.034238  p :     0.068777
      px      :     0.017984
      py      :     0.016555



                      *****************************
                      * MAYER POPULATION ANALYSIS *
                      *****************************

  NA   - Mulliken gross atomic population
  ZA   - Total nuclear charge
  QA   - Mulliken gross atomic charge
  VA   - Mayer's total valence
  BVA  - Mayer's bonded valence
  FA   - Mayer's free valence

  ATOM       NA         ZA         QA         VA         BVA        FA
  0 Ru    16.7806    16.0000    -0.7806     5.4238     5.4238    -0.0000
  1 P     14.8078    15.0000     0.1922     4.3135     4.3135     0.0000
  2 P     14.8088    15.0000     0.1912     4.3106     4.3106    -0.0000
  3 P     14.8465    15.0000     0.1535     4.1717     4.1717     0.0000
  4 C      6.1378     6.0000    -0.1378     3.9005     3.9005     0.0000
  5 H      0.9665     1.0000     0.0335     1.0162     1.0162     0.0000
  6 H      0.9610     1.0000     0.0390     1.0148     1.0148     0.0000
  7 H      1.0445     1.0000    -0.0445     0.9992     0.9992     0.0000
  8 H      1.0247     1.0000    -0.0247     0.9969     0.9969     0.0000
  9 H      0.9482     1.0000     0.0518     1.0062     1.0062    -0.0000
 10 H      0.9651     1.0000     0.0349     0.9928     0.9928     0.0000
 11 H      0.9309     1.0000     0.0691     0.9904     0.9904     0.0000
 12 C      6.1379     6.0000    -0.1379     3.9011     3.9011    -0.0000
 13 H      0.9488     1.0000     0.0512     1.0059     1.0059     0.0000
 14 H      0.9653     1.0000     0.0347     0.9929     0.9929     0.0000
 15 H      0.9303     1.0000     0.0697     0.9903     0.9903     0.0000
 16 C      6.1193     6.0000    -0.1193     3.9073     3.9073    -0.0000
 17 H      0.9275     1.0000     0.0725     0.9903     0.9903    -0.0000
 18 H      0.9213     1.0000     0.0787     0.9867     0.9867    -0.0000
 19 H      0.9716     1.0000     0.0284     0.9906     0.9906    -0.0000
 20 C      6.1192     6.0000    -0.1192     3.9070     3.9070    -0.0000
 21 H      0.9718     1.0000     0.0282     0.9906     0.9906    -0.0000
 22 H      0.9212     1.0000     0.0788     0.9867     0.9867    -0.0000
 23 H      0.9272     1.0000     0.0728     0.9907     0.9907    -0.0000
 24 C      6.1353     6.0000    -0.1353     3.8959     3.8959    -0.0000
 25 H      0.9500     1.0000     0.0500     1.0111     1.0111     0.0000
 26 H      0.9234     1.0000     0.0766     0.9925     0.9925     0.0000
 27 H      0.9645     1.0000     0.0355     0.9930     0.9930     0.0000
 28 C      6.1350     6.0000    -0.1350     3.8956     3.8956    -0.0000
 29 H      0.9505     1.0000     0.0495     1.0112     1.0112     0.0000
 30 H      0.9647     1.0000     0.0353     0.9930     0.9930    -0.0000
 31 H      0.9230     1.0000     0.0770     0.9922     0.9922    -0.0000
 32 C      6.1399     6.0000    -0.1399     3.8932     3.8932     0.0000
 33 H      0.9348     1.0000     0.0652     0.9914     0.9914     0.0000
 34 H      0.9515     1.0000     0.0485     1.0101     1.0101     0.0000
 35 H      0.9673     1.0000     0.0327     0.9931     0.9931     0.0000
 36 C      6.1171     6.0000    -0.1171     3.8888     3.8888    -0.0000
 37 H      0.9694     1.0000     0.0306     0.9910     0.9910     0.0000
 38 H      0.9476     1.0000     0.0524     1.0078     1.0078     0.0000
 39 H      0.9478     1.0000     0.0522     1.0082     1.0082    -0.0000
 40 C      6.1400     6.0000    -0.1400     3.8934     3.8934     0.0000
 41 H      0.9518     1.0000     0.0482     1.0105     1.0105     0.0000
 42 H      0.9673     1.0000     0.0327     0.9931     0.9931     0.0000
 43 H      0.9353     1.0000     0.0647     0.9916     0.9916     0.0000

  Mayer bond orders larger than 0.100000
B(  0-Ru,  1-P ) :   0.8749 B(  0-Ru,  2-P ) :   0.8717 B(  0-Ru,  3-P ) :   0.8795 
B(  0-Ru,  5-H ) :   0.4332 B(  0-Ru,  6-H ) :   0.4335 B(  0-Ru,  7-H ) :   0.8198 
B(  0-Ru,  8-H ) :   0.8144 B(  1-P , 12-C ) :   1.0104 B(  1-P , 16-C ) :   1.0193 
B(  1-P , 28-C ) :   1.0048 B(  2-P ,  4-C ) :   1.0098 B(  2-P , 20-C ) :   1.0194 
B(  2-P , 24-C ) :   1.0053 B(  3-P , 32-C ) :   0.9979 B(  3-P , 36-C ) :   1.0009 
B(  3-P , 40-C ) :   0.9980 B(  4-C ,  9-H ) :   0.9590 B(  4-C , 10-H ) :   0.9430 
B(  4-C , 11-H ) :   0.9572 B(  5-H ,  6-H ) :   0.5082 B( 12-C , 13-H ) :   0.9595 
B( 12-C , 14-H ) :   0.9430 B( 12-C , 15-H ) :   0.9574 B( 16-C , 17-H ) :   0.9585 
B( 16-C , 18-H ) :   0.9565 B( 16-C , 19-H ) :   0.9428 B( 20-C , 21-H ) :   0.9425 
B( 20-C , 22-H ) :   0.9566 B( 20-C , 23-H ) :   0.9584 B( 24-C , 25-H ) :   0.9535 
B( 24-C , 26-H ) :   0.9517 B( 24-C , 27-H ) :   0.9402 B( 28-C , 29-H ) :   0.9538 
B( 28-C , 30-H ) :   0.9401 B( 28-C , 31-H ) :   0.9515 B( 32-C , 33-H ) :   0.9560 
B( 32-C , 34-H ) :   0.9560 B( 32-C , 35-H ) :   0.9406 B( 36-C , 37-H ) :   0.9421 
B( 36-C , 38-H ) :   0.9545 B( 36-C , 39-H ) :   0.9544 B( 40-C , 41-H ) :   0.9560 
B( 40-C , 42-H ) :   0.9407 B( 40-C , 43-H ) :   0.9558 

-------
TIMINGS
-------

Total SCF time: 0 days 0 hours 1 min 1 sec 

Total time                  ....      61.049 sec
Sum of individual times     ....      58.297 sec  ( 95.5%)

SCF preparation             ....       0.060 sec  (  0.1%)
Fock matrix formation       ....      57.810 sec  ( 94.7%)
  Startup                   ....       0.006 sec  (  0.0% of F)
  Split-RI-J                ....      17.580 sec  ( 30.4% of F)
  XC integration            ....      42.791 sec  ( 74.0% of F)
    XC Preparation          ....       0.000 sec  (  0.0% of XC)
    Basis function eval.    ....      14.784 sec  ( 34.5% of XC)
    Density eval.           ....      11.757 sec  ( 27.5% of XC)
    XC-Functional eval.     ....       1.848 sec  (  4.3% of XC)
    XC-Potential eval.      ....      13.249 sec  ( 31.0% of XC)
Diagonalization             ....       0.000 sec  (  0.0%)
Density matrix formation    ....       0.059 sec  (  0.1%)
Total Energy calculation    ....       0.007 sec  (  0.0%)
Population analysis         ....       0.012 sec  (  0.0%)
Orbital Transformation      ....       0.032 sec  (  0.1%)
Orbital Orthonormalization  ....       0.000 sec  (  0.0%)
DIIS solution               ....       0.185 sec  (  0.3%)
SOSCF solution              ....       0.131 sec  (  0.2%)
Finished LeanSCF after  61.1 sec

Maximum memory used throughout the entire LEANSCF-calculation: 82.4 MB

-------------------------   --------------------
FINAL SINGLE POINT ENERGY     -1480.308115908194
-------------------------   --------------------


------------------------------------------------------------------------------
                              ORCA PROPERTY CALCULATIONS
------------------------------------------------------------------------------

GBWName                                 ... 1b_pme3_Compound_1.gbw
Number of atoms                         ...     44
Number of basis functions               ...    366
Max core memory                         ...   4096 MB

Electric properties:
Dipole moment                           ... YES
[...]
      f-3     :     0.002475

 35 H s       :     0.792767  s :     0.792767
      pz      :     0.056771  p :     0.205373
      px      :     0.064881
      py      :     0.083721
      dz2     :     0.007139  d :     0.066900
      dxz     :     0.006241
      dyz     :     0.016631
      dx2y2   :     0.023431
      dxy     :     0.013457
      f0      :     0.000870  f :     0.008886
      f+1     :     0.000556
      f-1     :     0.001138
      f+2     :     0.000605
      f-2     :     0.001421
      f+3     :     0.001755
      f-3     :     0.002542

 36 C s       :     2.586476  s :     2.586476
      pz      :     0.971816  p :     2.898045
      px      :     0.958608
      py      :     0.967621
      dz2     :     0.082049  d :     0.331321
      dxz     :     0.034812
      dyz     :     0.094067
      dx2y2   :     0.062338
      dxy     :     0.058054
      f0      :     0.006955  f :     0.051346
      f+1     :     0.008318
      f-1     :     0.010988
      f+2     :     0.008044
      f-2     :     0.006219
      f+3     :     0.007862
      f-3     :     0.002961
      g0      :     0.000337  g :     0.001948
      g+1     :     0.000140
      g-1     :     0.000217
      g+2     :     0.000417
      g-2     :     0.000346
      g+3     :     0.000104
      g-3     :     0.000117
      g+4     :     0.000075
      g-4     :     0.000195

 37 H s       :     0.793864  s :     0.793864
      pz      :     0.057834  p :     0.204965
      px      :     0.063584
      py      :     0.083547
      dz2     :     0.004585  d :     0.066615
      dxz     :     0.005404
      dyz     :     0.019527
      dx2y2   :     0.023125
      dxy     :     0.013974
      f0      :     0.001150  f :     0.008873
      f+1     :     0.000450
      f-1     :     0.000751
      f+2     :     0.000620
      f-2     :     0.001388
      f+3     :     0.001690
      f-3     :     0.002822

 38 H s       :     0.782196  s :     0.782196
      pz      :     0.082069  p :     0.207439
      px      :     0.057644
      py      :     0.067726
      dz2     :     0.023227  d :     0.068049
      dxz     :     0.012334
      dyz     :     0.013311
      dx2y2   :     0.009391
      dxy     :     0.009786
      f0      :     0.002184  f :     0.009030
      f+1     :     0.000728
      f-1     :     0.001824
      f+2     :     0.001639
      f-2     :     0.001664
      f+3     :     0.000367
      f-3     :     0.000625

 39 H s       :     0.782368  s :     0.782368
      pz      :     0.061522  p :     0.207525
      px      :     0.089657
      py      :     0.056346
      dz2     :     0.004790  d :     0.068029
      dxz     :     0.023451
      dyz     :     0.002365
      dx2y2   :     0.013783
      dxy     :     0.023640
      f0      :     0.001131  f :     0.009030
      f+1     :     0.001070
      f-1     :     0.000209
      f+2     :     0.001474
      f-2     :     0.000607
      f+3     :     0.001876
      f-3     :     0.002663

 40 C s       :     2.586933  s :     2.586933
      pz      :     0.958093  p :     2.900251
      px      :     0.980180
      py      :     0.961979
      dz2     :     0.063104  d :     0.333698
      dxz     :     0.056286
      dyz     :     0.053566
      dx2y2   :     0.076223
      dxy     :     0.084519
      f0      :     0.003893  f :     0.051440
      f+1     :     0.008213
      f-1     :     0.007898
      f+2     :     0.005261
      f-2     :     0.006863
      f+3     :     0.010212
      f-3     :     0.009100
      g0      :     0.000105  g :     0.001940
      g+1     :     0.000278
      g-1     :     0.000066
      g+2     :     0.000106
      g-2     :     0.000390
      g+3     :     0.000281
      g-3     :     0.000040
      g+4     :     0.000148
      g-4     :     0.000526

 41 H s       :     0.787094  s :     0.787094
      pz      :     0.076327  p :     0.211986
      px      :     0.066799
      py      :     0.068859
      dz2     :     0.021476  d :     0.068202
      dxz     :     0.012241
      dyz     :     0.012016
      dx2y2   :     0.012602
      dxy     :     0.009868
      f0      :     0.001829  f :     0.009026
      f+1     :     0.000772
      f-1     :     0.001683
      f+2     :     0.001807
      f-2     :     0.001608
      f+3     :     0.000429
      f-3     :     0.000899

 42 H s       :     0.792739  s :     0.792739
      pz      :     0.054459  p :     0.205391
      px      :     0.067007
      py      :     0.083925
      dz2     :     0.005337  d :     0.066916
      dxz     :     0.002710
      dyz     :     0.021129
      dx2y2   :     0.018891
      dxy     :     0.018850
      f0      :     0.001044  f :     0.008889
      f+1     :     0.000385
      f-1     :     0.001030
      f+2     :     0.001133
      f-2     :     0.000830
      f+3     :     0.001659
      f-3     :     0.002808

 43 H s       :     0.782440  s :     0.782440
      pz      :     0.082099  p :     0.205004
      px      :     0.063869
      py      :     0.059035
      dz2     :     0.020657  d :     0.067974
      dxz     :     0.018339
      dyz     :     0.017578
      dx2y2   :     0.006823
      dxy     :     0.004577
      f0      :     0.002740  f :     0.008952
      f+1     :     0.001547
      f-1     :     0.001732
      f+2     :     0.001507
      f-2     :     0.001098
      f+3     :     0.000096
      f-3     :     0.000232



                      *****************************
                      * MAYER POPULATION ANALYSIS *
                      *****************************

  NA   - Mulliken gross atomic population
  ZA   - Total nuclear charge
  QA   - Mulliken gross atomic charge
  VA   - Mayer's total valence
  BVA  - Mayer's bonded valence
  FA   - Mayer's free valence

  ATOM       NA         ZA         QA         VA         BVA        FA
  0 Ru    16.1130    16.0000    -0.1130     5.2796     5.2796     0.0000
  1 P     14.8353    15.0000     0.1647     4.2052     4.2052    -0.0000
  2 P     14.8380    15.0000     0.1620     4.1985     4.1985     0.0000
  3 P     14.9209    15.0000     0.0791     3.9721     3.9721    -0.0000
  4 C      6.2307     6.0000    -0.2307     3.8219     3.8219    -0.0000
  5 H      0.9465     1.0000     0.0535     1.1001     1.1001    -0.0000
  6 H      0.9383     1.0000     0.0617     1.0952     1.0952    -0.0000
  7 H      1.0648     1.0000    -0.0648     1.0567     1.0567    -0.0000
  8 H      1.1040     1.0000    -0.1040     1.1027     1.1027    -0.0000
  9 H      0.9227     1.0000     0.0773     1.0163     1.0163     0.0000
 10 H      0.9504     1.0000     0.0496     1.0189     1.0189     0.0000
 11 H      0.9114     1.0000     0.0886     1.0041     1.0041    -0.0000
 12 C      6.2327     6.0000    -0.2327     3.8210     3.8210    -0.0000
 13 H      0.9233     1.0000     0.0767     1.0154     1.0154     0.0000
 14 H      0.9505     1.0000     0.0495     1.0192     1.0192    -0.0000
 15 H      0.9086     1.0000     0.0914     1.0028     1.0028     0.0000
 16 C      6.2670     6.0000    -0.2670     3.8401     3.8401    -0.0000
 17 H      0.9078     1.0000     0.0922     1.0105     1.0105    -0.0000
 18 H      0.8942     1.0000     0.1058     1.0017     1.0017     0.0000
 19 H      0.9542     1.0000     0.0458     1.0166     1.0166    -0.0000
 20 C      6.2686     6.0000    -0.2686     3.8416     3.8416     0.0000
 21 H      0.9538     1.0000     0.0462     1.0162     1.0162     0.0000
 22 H      0.8942     1.0000     0.1058     1.0017     1.0017    -0.0000
 23 H      0.9073     1.0000     0.0927     1.0100     1.0100     0.0000
 24 C      6.1987     6.0000    -0.1987     3.8067     3.8067     0.0000
 25 H      0.9478     1.0000     0.0522     1.0264     1.0264     0.0000
 26 H      0.9146     1.0000     0.0854     1.0141     1.0141     0.0000
 27 H      0.9516     1.0000     0.0484     1.0180     1.0180    -0.0000
 28 C      6.1992     6.0000    -0.1992     3.8068     3.8068     0.0000
 29 H      0.9477     1.0000     0.0523     1.0261     1.0261     0.0000
 30 H      0.9515     1.0000     0.0485     1.0180     1.0180    -0.0000
 31 H      0.9148     1.0000     0.0852     1.0139     1.0139     0.0000
 32 C      6.2314     6.0000    -0.2314     3.8219     3.8219     0.0000
 33 H      0.9181     1.0000     0.0819     1.0134     1.0134     0.0000
 34 H      0.9535     1.0000     0.0465     1.0325     1.0325    -0.0000
 35 H      0.9550     1.0000     0.0450     1.0186     1.0186     0.0000
 36 C      6.2076     6.0000    -0.2076     3.8019     3.8019    -0.0000
 37 H      0.9558     1.0000     0.0442     1.0167     1.0167    -0.0000
 38 H      0.9278     1.0000     0.0722     1.0222     1.0222     0.0000
 39 H      0.9277     1.0000     0.0723     1.0228     1.0228    -0.0000
 40 C      6.2324     6.0000    -0.2324     3.8228     3.8228    -0.0000
 41 H      0.9525     1.0000     0.0475     1.0320     1.0320     0.0000
 42 H      0.9549     1.0000     0.0451     1.0190     1.0190    -0.0000
 43 H      0.9189     1.0000     0.0811     1.0136     1.0136     0.0000

  Mayer bond orders larger than 0.100000
B(  0-Ru,  1-P ) :   0.8601 B(  0-Ru,  2-P ) :   0.8447 B(  0-Ru,  3-P ) :   0.7605 
B(  0-Ru,  5-H ) :   0.5061 B(  0-Ru,  6-H ) :   0.5021 B(  0-Ru,  7-H ) :   0.7994 
B(  0-Ru,  8-H ) :   0.7094 B(  1-P ,  3-P ) :   0.1183 B(  1-P ,  8-H ) :   0.1297 
B(  1-P , 12-C ) :   0.9101 B(  1-P , 16-C ) :   0.9483 B(  1-P , 28-C ) :   0.9051 
B(  2-P ,  3-P ) :   0.1287 B(  2-P ,  4-C ) :   0.9101 B(  2-P ,  8-H ) :   0.1316 
B(  2-P , 20-C ) :   0.9498 B(  2-P , 24-C ) :   0.9048 B(  3-P , 32-C ) :   0.9075 
B(  3-P , 36-C ) :   0.8791 B(  3-P , 40-C ) :   0.9089 B(  4-C ,  9-H ) :   0.9527 
B(  4-C , 10-H ) :   0.9470 B(  4-C , 11-H ) :   0.9500 B(  5-H ,  6-H ) :   0.4690 
B( 12-C , 13-H ) :   0.9521 B( 12-C , 14-H ) :   0.9473 B( 12-C , 15-H ) :   0.9496 
B( 16-C , 17-H ) :   0.9468 B( 16-C , 18-H ) :   0.9420 B( 16-C , 19-H ) :   0.9464 
B( 20-C , 21-H ) :   0.9464 B( 20-C , 22-H ) :   0.9419 B( 20-C , 23-H ) :   0.9469 
B( 24-C , 25-H ) :   0.9505 B( 24-C , 26-H ) :   0.9498 B( 24-C , 27-H ) :   0.9449 
B( 28-C , 29-H ) :   0.9505 B( 28-C , 30-H ) :   0.9449 B( 28-C , 31-H ) :   0.9497 
B( 32-C , 33-H ) :   0.9500 B( 32-C , 34-H ) :   0.9534 B( 32-C , 35-H ) :   0.9435 
B( 36-C , 37-H ) :   0.9440 B( 36-C , 38-H ) :   0.9530 B( 36-C , 39-H ) :   0.9531 
B( 40-C , 41-H ) :   0.9531 B( 40-C , 42-H ) :   0.9439 B( 40-C , 43-H ) :   0.9501 


-------
TIMINGS
-------

Total SCF time: 0 days 0 hours 6 min 35 sec 

Total time                  ....     395.415 sec
Sum of individual times     ....     379.959 sec  ( 96.1%)

SCF preparation             ....       0.214 sec  (  0.1%)
Fock matrix formation       ....     364.373 sec  ( 92.1%)
  Startup                   ....       0.073 sec  (  0.0% of F)
  Split-RI-J                ....     129.836 sec  ( 35.6% of F)
  XC integration            ....     249.771 sec  ( 68.5% of F)
    XC Preparation          ....       0.000 sec  (  0.0% of XC)
    Basis function eval.    ....      36.874 sec  ( 14.8% of XC)
    Density eval.           ....      86.713 sec  ( 34.7% of XC)
    XC-Functional eval.     ....       1.668 sec  (  0.7% of XC)
    XC-Potential eval.      ....     123.085 sec  ( 49.3% of XC)
Diagonalization             ....       0.000 sec  (  0.0%)
Density matrix formation    ....       0.451 sec  (  0.1%)
Total Energy calculation    ....       0.079 sec  (  0.0%)
Population analysis         ....       0.500 sec  (  0.1%)
Orbital Transformation      ....       1.925 sec  (  0.5%)
Orbital Orthonormalization  ....       0.000 sec  (  0.0%)
DIIS solution               ....       6.174 sec  (  1.6%)
SOSCF solution              ....       6.242 sec  (  1.6%)
Finished LeanSCF after 395.5 sec

Maximum memory used throughout the entire LEANSCF-calculation: 582.5 MB

-------------------------   --------------------
FINAL SINGLE POINT ENERGY     -1481.192530204503
-------------------------   --------------------


------------------------------------------------------------------------------
                              ORCA PROPERTY CALCULATIONS
------------------------------------------------------------------------------

GBWName                                 ... 1b_pme3_Compound_3.gbw
Number of atoms                         ...     44
Number of basis functions               ...   1725
Max core memory                         ...   4096 MB

Electric properties:
Dipole moment                           ... YES
Quadrupole moment                       ...  NO
Static polarizability (Dipole/Dipole)   ...  NO
Static polarizability (Dipole/Quad.)    ...  NO
Static polarizability (Quad./Quad.)     ...  NO
Static polarizability (Velocity)        ...  NO
Static hyperpolarizability              ...  NO

Atomic electric properties:
Dipole moment                           ...  NO
Quadrupole moment                       ...  NO
Static polarizability                   ...  NO

Choice of electric origin               ... Center of mass
Position of electric origin             ...     1.600925     2.020314    -0.116822

General magnetic properties:
Magnetizability                         ...  NO

EPR properties:
g-Tensor (aka g-matrix)                 ...  NO
Zero-Field splitting spin-orbit         ...  NO
Zero-field splitting spin-spin          ...  NO
Hyperfine couplings                     ...  NO (   0 nuclei)
Quadrupole couplings                    ...  NO (   0 nuclei)
Contact density                         ...  NO (   0 nuclei)

NMR properties:
Chemical shifts                         ...  NO (   0 nuclei)
Spin-rotation constants                 ...  NO (   0 nuclei)
Spin-spin couplings                     ...  NO (   0 nuclei,    0 pairs)

Choice of magnetic origin               ... GIAO
Position of magnetic origin             ...     0.000000     0.000000     0.000000

Properties with geometric perturbations:
SCF Hessian                             ...  NO
IR spectrum                             ...  NO
VCD spectrum                            ...  NO
X-ray spectroscopy properties:
SCF XES/XAS/RIXS spectra                ...  NO

SCF SOC stabilization energy            ...  NO
Diagonal Born-Oppenheimer correction    ...  NO

-------------
DIPOLE MOMENT
-------------

Method             : SCF
Type of density    : Electron Density
Multiplicity       :   1
Irrep              :   0
Energy             : -1481.1925302045031003 Eh
Basis              : AO
                                X                 Y                 Z
Electronic contribution:     -9.452660430      31.520319457      20.007127016
Nuclear contribution   :      9.758665343     -32.092642150     -20.118721168
                        -----------------------------------------
Total Dipole Moment    :      0.306004913      -0.572322694      -0.111594151
                        -----------------------------------------
Magnitude (a.u.)       :      0.658517674
Magnitude (Debye)      :      1.673818907



--------------------
Rotational spectrum 
--------------------
 
Rotational constants in cm-1:             0.017652             0.011454             0.008545 
Rotational constants in MHz :           529.194214           343.381543           256.169975 

Dipole components along the rotational axes: 
x,y,z [a.u.] :    -0.007371     0.649154    -0.110409 
x,y,z [Debye]:    -0.018736     1.650019    -0.280637 

 

Dipole moment calculation done in   0.0 sec 

Maximum memory used throughout the entire PROP-calculation: 525.5 MB

Timings for individual modules:

Sum of individual times          ...      410.422 sec (=   6.840 min)
Startup calculation              ...       13.339 sec (=   0.222 min)   3.3 %
SCF iterations                   ...      396.859 sec (=   6.614 min)  96.7 %
Property calculations            ...        0.223 sec (=   0.004 min)   0.1 %

--------------------------------
SUGGESTED CITATIONS FOR THIS RUN
--------------------------------

Below you find a list of papers that are relevant to this ORCA run
We neither can nor want to force you to cite these papers, but we appreciate if you do
You receive ORCA, which is the product of decades of hard work by many enthusiastic individuals, for free
The only thing we kindly ask in return is that you cite our papers,
We deeply appreciate it, if you show your appreciation for ORCA by not just citing the generic ORCA reference.

Please note that relegating all ORCA citations to the supporting information does *not* help us.
SI sections are not indexed - citations you put there will not count into any citation statistics
But we need these citations in order to attract the funding resources that allow us to do what we are doing

Therefore, if you are a happy ORCA user, please consider citing a few of the papers listed below in the main body of your paper

In addition to the list printed below, the program has created the file 1b_pme3.bibtex that contains the list in bibtex format
You can import this file easily into all common literature databanks and citation aid programs

It goes without saying that in many instances, there are alternative algorithms to achieve similar
results as the ones you have gotten from ORCA. It is, of course, also the case that in some instances
ORCA just re-implements algorithms worked out by others. We are fully aware of that and we are also
fully appreciative of our colleagues work. Hence this citation list should not be read as indicating
that the listed papers, which are focused on our own work, are the only ones worth citing. It simply
meant to make it easier for users to cite ORCA specific papers. It is not a substitute for doing your
own literature research and citing the relevant literature in a scientifically appropriate manner.

List of essential papers. We consider these as the minimum necessary citations

  1. Neese, F.
     Software update: the ORCA program system, version 6.0
     WIRES Comput. Molec. Sci. 2025 15(1), e70019
     doi.org/10.1002/wcms.70019

List of papers to cite with high priority. The work reported in these papers was absolutely
necessary for this run to complete.
Our perspective: the developers of density functionals and basis sets usually get cited in chemistry papers
Good! But without the algorithms to do something with them, the functionals or basis sets would not do anything.
Hence, in our opinion, the algorithm design and method developments papers are equally worthy of getting cited

  1. Neese, F.
     An improvement of the resolution of the identity approximation for the formation of the Coulomb matrix
     J. Comp. Chem. 2003 24(14), 1740-1747
     doi.org/10.1002/jcc.10318
  2. Neese, F.
     The SHARK Integral Generation and Digestion System
     J. Comp. Chem. 2022 44(3), 381
     doi.org/10.1002/jcc.26942

List of suggested additional citations. These are papers that are important in the 'surrounding' of 
of this run, or papers that preceded the highly important papers. If you like your results we are grateful for a citation.

  1. Neese, F.
     The ORCA program system
     WIRES Comput. Molec. Sci. 2012 2(1), 73-78
     doi.org/10.1002/wcms.81
  2. Neese, F.
     Software update: the ORCA program system, version 4.0
     WIRES Comput. Molec. Sci. 2018 8(1), 1-6
     doi.org/10.1002/wcms.1327
  3. Neese, F.; Wennmohs, F.; Becker, U.; Riplinger, C.
     The ORCA quantum chemistry program package
     J. Chem. Phys. 2020 152(22), 224108
     doi.org/10.1063/5.0004608
  4. Neese, F.
     Software update: The ORCA program system—Version 5.0
     WIRES Comput. Molec. Sci. 2022 12(1), e1606
     doi.org/10.1002/wcms.1606

List of optional additional citations

  1. Neese, F.
     Approximate second-order SCF convergence for spin unrestricted wavefunctions
     Chem. Phys. Lett. 2000 325(1-3), 93-98
     doi.org/10.1016/s0009-2614(00)00662-x
                             ****ORCA TERMINATED NORMALLY****
TOTAL RUN TIME: 0 days 0 hours 10 minutes 24 seconds 874 msec
