
                                 *****************
                                 * O   R   C   A *
                                 *****************

                                            #,                                       
                                            ###                                      
                                            ####                                     
                                            #####                                    
                                            ######                                   
                                           ########,                                 
                                     ,,################,,,,,                         
                               ,,#################################,,                 
                          ,,##########################################,,             
                       ,#########################################, ''#####,          
                    ,#############################################,,   '####,        
                  ,##################################################,,,,####,       
                ,###########''''           ''''###############################       
              ,#####''   ,,,,##########,,,,          '''####'''          '####       
            ,##' ,,,,###########################,,,                        '##       
           ' ,,###''''                  '''############,,,                           
         ,,##''                                '''############,,,,        ,,,,,,###''
      ,#''                                            '''#######################'''  
     '                                                          ''''####''''         
             ,#######,   #######,   ,#######,      ##                                
            ,#'     '#,  ##    ##  ,#'     '#,    #''#        ,####,    ,#,          
            ##       ##  ##   ,#'  ##            #'  '#       #'       ,# #          
            ##       ##  #######   ##           ,######,      #####,      #          
            '#,     ,#'  ##    ##  '#,     ,#' ,#      #,     #,   #      #          
             '#######'   ##     ##  '#######'  #'      '#     '####' #    #          



                #########################################################
                #                        -***-                          #
                #          Department of theory and spectroscopy        #
                #                                                       #
                #                      Frank Neese                      #
                #                                                       #
                #     Directorship, Architecture, Infrastructure        #
                #                    SHARK, DRIVERS                     #
                #        Core code/Algorithms in most modules           #
                #                                                       #
                #        Max Planck Institute fuer Kohlenforschung      #
                #                Kaiser Wilhelm Platz 1                 #
                #                 D-45470 Muelheim/Ruhr                 #
                #                      Germany                          #
                #                                                       #
                #                  All rights reserved                  #
                #                        -***-                          #
                #########################################################


                         Program Version 6.1.1  -  RELEASE   -
                                (GIT: $487d211c$)
                          ($2025-11-21 10:33:24 +0100$)


 With contributions from (in alphabetic order):
[Max-Planck-Institut fuer Kohlenforschung]                               
  Daniel Aravena         : Magnetic Suceptibility                        
  Michael Atanasov       : Ab Initio Ligand Field Theory (pilot matlab implementation)
  Alexander A. Auer      : GIAO ZORA, VPT2 properties, NMR spectrum      
  Ute Becker             : All parallelization in ORCA, NUMFREQ, NUMCALC 
  Giovanni Bistoni       : ED, misc. LED, open-shell LED, HFLD           
  Dmytro Bykov           : pre 5.0 version of the SCF Hessian            
  Marcos Casanova-Páez   : Triplet and SCS-CIS(D). UHF-(DLPNO)-IP/EA/STEOM-CCSD. UHF-CVS-IP/STEOM-CCSD   
  Vijay G. Chilkuri      : MRCI spin determinant printing, contributions to CSF-ICE 
  Pauline Colinet        : FMM embedding                                 
  Dipayan Datta          : RHF DLPNO-CCSD density                        
  Achintya Kumar Dutta   : EOM-CC, STEOM-CC                              
  Nicolas Foglia         : Exact transition moments, OPA infrastructure, MCD improvements    
  Dmitry Ganyushin       : Spin-Orbit,Spin-Spin,Magnetic field MRCI      
  Miquel Garcia-Rates    : C-PCM and meta-GGA Hessian, CCSD/C-PCM, Gaussian charge scheme 
  Tiago L. C. Gouveia    : GS-ROHF, GS-ROCIS                             
  Yang Guo               : DLPNO-NEVPT2, F12-NEVPT2, CIM, IAO-localization        
  Andreas Hansen         : Spin unrestricted coupled pair/coupled cluster methods 
  Ingolf Harden          : AUTO-CI MPn and infrastructure                
  Benjamin Helmich-Paris : MC-RPA, TRAH-(SCF,CASSCF), AVAS, COSX integrals, SCF dyn. polar., MC-PDFT, srDFT 
  Lee Huntington         : MR-EOM, pCC                                   
  Robert Izsak           : Overlap fitted RIJCOSX, COSX-SCS-MP3, EOM     
  Riya Kayal             : Wick's Theorem for AUTO-CI, AUTO-CI UHF-CCSDT 
  Emily Kempfer          : AUTO-CI RHF CISDT and CCSDT, approximate NEVPT4
  Christian Kollmar      : KDIIS, OOCD, Brueckner-CCSD(T), CCSD density, CASPT2, CASPT2-K, improved NEVPT2 
  Axel Koslowski         : Symmetry handling                             
  Simone Kossmann        : meta-GGA functionals, TD-DFT gradient, OOMP2, (MP2 Hessian; deprecated post 5.0) 
  Lucas Lang             : DCDCAS, Hyperfine gauge corrections, ICE-SOC+SSC
  Marvin Lechner         : AUTO-CI (C++ implementation), FIC-MRCC        
  Spencer Leger          : CASSCF response                               
  Dagmar Lenk            : GEPOL surface, SMD, ORCA-2-JSON               
  Dimitrios Liakos       : Extrapolation schemes; Compound Job, Property file
  Dimitrios Manganas     : Further ROCIS development; embedding schemes. LFT, Crystal Embedding 
  Dimitrios Pantazis     : SARC Basis sets                               
  Anastasios Papadopoulos: AUTO-CI, single reference methods and gradients 
  Taras Petrenko         : pre 6.0 DFT Hessian and TD-DFT gradient,  ECA, NRVS 
  Petra Pikulova         : Analytic Raman intensities                    
  Peter Pinski           : DLPNO-MP2, DLPNO-MP2 Gradient                 
  Shashank Vittal Rao    : ES-AILFT, MagRelax                            
  Christoph Reimann      : Effective Core Potentials                     
  Marius Retegan         : Local ZFS, SOC                                
  Christoph Riplinger    : Optimizer, TS searches, QM/MM, DLPNO-CCSD(T), (RO)-DLPNO pert. Triples 
  Michael Roemelt        : Original ROCIS implementation, recursive CI coupling coefficients
  Masaaki Saitow         : Open-shell DLPNO-CCSD energy and density      
  Barbara Sandhoefer     : DKH picture change effects                    
  Yorick L. A. Schmerwitz: GMF and freeze-and-release deltaSCF, NEB S-IDPP initial path                    
  Kantharuban Sivalingam : CASSCF convergence/infrastructure, NEVPT2, NEVPT3, NEVPT4(SD), FIC-MRCI and CEPA variants
  Bernardo de Souza      : ESD, SOC TD-DFT                               
  Georgi L. Stoychev     : AutoAux, RI-MP2 NMR, DLPNO-MP2 response, X2C  
  Van Anh Tran           : RI-MP2 g-tensors                              
  Willem Van den Heuvel  : Paramagnetic NMR                              
  Zikuan Wang            : NOTCH, Electric field optimization            
  Frank Wennmohs         : Technical directorship and infrastructure     
  Hang Xu                : AUTO-CI-Response properties                   
                                                                         
[FACCTs GmbH]                                                            
  Markus Bursch, Nicolas Foglia, Miquel Garcia-Rates, Ingolf Harden, Hagen Neugebauer, Anastasios Papadopoulos, 
  Christoph Riplinger, Bernardo de Souza, Georgi L. Stoychev                                                    
                                                                 
  APM, various basis sets, CI-OPT, improved COSX, DLPNO-Multilevel,           
  DOCKER, DRACO, updates on ESD, Fragmentator, GOAT, IRC, LR-CPCM, L-BFGS, MBIS, meta-GGA TD-DFT gradient, ML-optimized integration grids, 
  MM, NACMEs, nearIR, NEB, NEB-TS, NL-DFT gradient (VV10), 2- and 3-layer-ONIOM, interface openCOSMO-RS, QMMM,   
  Crystal-QMMM, RESP, rigid body optimization, SF, symmetry and pop. for TD-DFT, various functionals, SOLVATOR                                   
                                                                         
[Other institutions]                                                     
  V. Asgeirsson          : NEB                                           
  Christoph Bannwarth    : sTDA-DFT, sTD-DFT, PBEh-3c, B97-3c, D3        
  Giovanni Bistoni       : ETS/NOCV, ADLD/ADEX, COVALED                  
  Martin Brehm           : Molecular dynamics                            
  Ronald Cardenas        : ETS/NOCV                                      
  Martina Colucci        : COVALED                                       
  Sebastian Ehlert       : rSCAN, r2SCAN, r2SCAN-3c, D4, dhf basis sets  
  Marvin Friede          : D4 for Fr, Ra, Ac-Lr                          
  Lars Goerigk           : TD-DFT with DH, B97 family of functionals     
  Stefan Grimme          : VdW corrections, initial TS optimization, DFT functionals, gCP, sTDA/sTD-DF 
  Waldemar Hujo          : DFT-NL                                        
  H. Jonsson             : NEB                                           
  Holger Kruse           : gCP                                           
  Marcel Mueller         : wB97X-3c, vDZP basis set                      
  Hagen Neugebauer       : wr2SCAN, Native XTB                           
  Gianluca Regni         : ADLD/ADEX                                     
  Tobias Risthaus        : pre 6.0 range-separated hybrid DFT and stability analysis
  Lukas Wittmann         : regularized MP2, r2SCAN double-hybrids, wr2SCAN        
                                                                         
We gratefully acknowledge several colleagues who have allowed us to      
interface, adapt or use parts of their codes:                            
  Ed Valeev, F. Pavosevic, A. Kumar             : LibInt (2-el integral package), F12 methods 
  Garnet Chan, S. Sharma, J. Yang, R. Olivares  : DMRG                   
  Ulf Ekstrom                                   : XCFun DFT Library      
  Mihaly Kallay                                 : mrcc  (arbitrary order and MRCC methods)
  Frank Weinhold                                : gennbo (NPA and NBO analysis)           
  Simon Mueller                                 : openCOSMO-RS                            
  Christopher J. Cramer and Donald G. Truhlar   : smd solvation model                     
  S Lehtola, MJT Oliveira, MAL Marques          : LibXC Library                           
  Liviu Ungur et al                             : ANISO software                          


 Your calculation uses the libint2 library for the computation of 2-el integrals
 For citations please refer to: http://libint.valeyev.net

 Your ORCA version has been built with support for libXC version: 7.0.0
 For citations please refer to: https://libxc.gitlab.io

 This ORCA versions uses:
   CBLAS   interface :  Fast vector & matrix operations
   LAPACKE interface :  Fast linear algebra routines
   SCALAPACK package :  Parallel linear algebra routines
   Shared memory     :  Shared parallel matrices
   BLAS/LAPACK       :  OpenBLAS 0.3.29  USE64BITINT DYNAMIC_ARCH NO_AFFINITY Cooperlake SINGLE_THREADED
        Core in use  :  Cooperlake
   Copyright (c) 2011-2014, The OpenBLAS Project


  ***********************************
  * Starting time: Mon Jul 20 19:12:07 2026
  * Host name:     c1-33
  * Process ID:    3884506
  * Working dir.:  /cluster/projects/nn14654k/ylvaos/TPhP_bsse/orca/geomopt_wb97x-d4_def2svp_pme3
  ***********************************

Your calculation utilizes the atom-pairwise dispersion correction
based on EEQ partial charges (D4)


Warning: RI is on but no J-basis has been assigned. Assigning Def2/J (nothing to worry about!)
================================================================================

cite the ECPs for Ru [Def2-ECP] as follows:
Ce-Yb(ecp-28): M. Dolg, H. Stoll, H.Preuss, J. Chem. Phys., 1989, 90, 1730-1734.
Y-Cd(ecp-28), Hf-Hg(ecp-46): D. Andrae,U. Haeussermann, M. Dolg, H. Stoll, H. Preuss, Theor. Chim. Acta, 1990, 77, 123-141.
In-Sb(ecp-28), Tl-Bi(ecp-46): B. Metz, H. Stoll, M. Dolg, J. Chem. Phys., 2000, 113, 2563-2569.
Te-Xe(ecp-28), Po-Rn(ecp-46): K. A. Peterson, D. Figgen, E. Goll, H. Stoll, M. Dolg, J. Chem. Phys., 2003, 119, 11113-11123.
Rb(ecp-28), Cs(ecp-46): T. Leininger, A. Nicklass, W. Kuechle, H. Stoll, M. Dolg, A. Bergner, Chem. Phys. Lett., 1996, 255, 274-280.
Sr(ecp-28), Ba(ecp-46): M. Kaupp, P. V. Schleyer, H. Stoll and H. Preuss, J. Chem. Phys., 1991, 94, 1360-1366.
La(ecp-46): M. Dolg, H. Stoll, A. Savin, H. Preuss, Theor. Chim. Acta, 1989, 75, 173-194.
Lu(ecp-28): X. Cao, M. Dolg, J. Chem. Phys., 2001, 115, 7348-7355.

ECP parameters for Ru [Def2-ECP] have been obtained from:
TURBOMOLE (7.0.2)

----- Orbital basis set information -----
Your calculation utilizes the basis: def2-SVP
   F. Weigend and R. Ahlrichs, Phys. Chem. Chem. Phys. 7, 3297 (2005).

----- AuxJ basis set information -----
Your calculation utilizes the auxiliary basis: def2/J
   H-Rn: F. Weigend, Phys. Chem. Chem. Phys. 8, 1057 (2006).
   Fr-Lr: K. Eichkorn, F. Weigend, O. Treutler, R. Ahlrichs; Theor. Chem. Acc. 97, 119 (1997).

================================================================================
                                        WARNINGS
                       Please study these warnings very carefully!
================================================================================


WARNING: Geometry Optimization
  ===> : Switching off AutoStart
         For restart on a previous wavefunction, please use MOREAD

================================================================================
                                       INPUT FILE
================================================================================
NAME = 15h_pme3_opt.inp
|  1> ! wB97X-D4 def2-SVP TightSCF defgrid3 Opt
|  2> 
|  3> %pal nprocs 32 end
|  4> 
|  5> %loc
|  6>   LocMet NEWBOYS
|  7>   Occ true
|  8> end
|  9> 
| 10> *xyz 0 1
| 11>  Ru       -2.26535        1.11979       -2.51773
| 12>  P       -3.42085        3.76692       -0.26120
| 13>  P       -1.35665       -1.94919        2.79329
| 14>  H       -1.69913        0.19855       -1.04383
| 15>  H       -1.98426        1.18320        3.60517
| 16>  H       -1.06984        2.08095       -3.51145
| 17>  H       -3.98821        0.93885       -3.10009
| 18>  C       -3.61598        4.17181        1.54916
| 19>  H       -4.23366        3.38948        2.03550
| 20>  H       -4.10709        5.15791        1.68024
| 21>  H       -2.61585        4.19757        2.03087
| 22>  C       -2.67533        5.38932       -0.79952
| 23>  H       -3.27782        6.24153       -0.42367
| 24>  H       -2.64219        5.42713       -1.90764
| 25>  H       -1.64180        5.47045       -0.40204
| 26>  C       -5.17856        4.12057       -0.78176
| 27>  H       -5.84489        3.32273       -0.38783
| 28>  H       -5.23607        4.13054       -1.89172
| 29>  H       -5.51350        5.10415       -0.38865
| 30>  C        0.37203       -2.00417        3.49132
| 31>  H        0.99742       -1.24137        2.98362
| 32>  H        0.33661       -1.78074        4.57744
| 33>  H        0.82575       -3.00578        3.34059
| 34>  C       -0.97159       -2.66889        1.11638
| 35>  H       -1.92019       -2.89718        0.58836
| 36>  H       -0.37664       -3.60058        1.21522
| 37>  H       -0.39453       -1.92980        0.52348
| 38>  C       -1.99735       -3.50753        3.59315
| 39>  H       -1.29414       -4.35082        3.43156
| 40>  H       -2.11753       -3.33801        4.68295
| 41>  H       -2.98300       -3.76668        3.15488
| 42> **                         ****END OF INPUT****
================================================================================

                       *****************************
                       * Geometry Optimization Run *
                       *****************************

Geometry optimization settings:
Update method            Update   .... BFGS
Choice of coordinates    CoordSys .... (2022) Redundant Internals
Initial Hessian          InHess   .... Almloef's Model
Max. no of cycles        MaxIter  .... 93

Convergence Tolerances:
Energy Change            TolE     ....  5.0000e-06 Eh
Max. Gradient            TolMAXG  ....  3.0000e-04 Eh/bohr
RMS Gradient             TolRMSG  ....  1.0000e-04 Eh/bohr
Max. Displacement        TolMAXD  ....  4.0000e-03 bohr
RMS Displacement         TolRMSD  ....  2.0000e-03 bohr
Strict Convergence                .... False

------------------------------------------------------------------------------
                        ORCA OPTIMIZATION COORDINATE SETUP
------------------------------------------------------------------------------

The optimization will be done in redundant internal coordinates (2022)
Making redundant internal coordinates   ...  (2022 redundants) done
Evaluating the initial hessian          ...  (Almloef) done
Evaluating the coordinates              ...  done
Calculating the B-matrix                .... done
Calculating the G-matrix                .... done
The number of degrees of freedom        ....  235

    -----------------------------------------------------------------
                    Redundant Internal Coordinates


    -----------------------------------------------------------------
         Definition                    Initial Value    Approx d2E/dq
    -----------------------------------------------------------------
      1. B(P   1,Ru  0)                  3.6653         0.010000   
      2. B(H   3,Ru  0)                  1.8280         0.242147   
      3. B(H   3,P   1)                  4.0386         0.010000   
      4. B(H   4,P   2)                  3.2962         0.010000   
      5. B(H   5,P   1)                  4.3513         0.010000   
      6. B(H   5,Ru  0)                  1.8277         0.242419   
      7. B(H   6,Ru  0)                  1.8276         0.242522   
      8. B(H   6,P   1)                  4.0471         0.010000   
      9. B(C   7,H   4)                  3.9776         0.010000   
     10. B(C   7,P   1)                  1.8653         0.366346   
     11. B(H   8,C   7)                  1.1091         0.335703   
     12. B(H   8,H   4)                  3.5201         0.010000   
     13. B(H   9,C   7)                  1.1094         0.335332   
     14. B(H  10,C   7)                  1.1104         0.334111   
     15. B(H  10,H   4)                  3.4589         0.010000   
     16. B(C  11,P   1)                  1.8649         0.366940   
     17. B(H  12,C  11)                  1.1093         0.335468   
     18. B(H  13,C  11)                  1.1093         0.335502   
     19. B(H  13,Ru  0)                  4.3666         0.010000   
     20. B(H  13,H   5)                  4.0301         0.010000   
     21. B(H  14,C  11)                  1.1103         0.334228   
     22. B(C  15,P   1)                  1.8670         0.364124   
     23. B(C  15,H   6)                  4.1128         0.010000   
     24. B(H  16,C  15)                  1.1116         0.332591   
     25. B(H  16,H   6)                  4.0604         0.010000   
     26. B(H  17,C  15)                  1.1115         0.332760   
     27. B(H  17,Ru  0)                  4.2757         0.010000   
     28. B(H  17,H   6)                  3.6338         0.010000   
     29. B(H  18,C  15)                  1.1109         0.333459   
     30. B(C  19,H   4)                  3.9654         0.010000   
     31. B(C  19,P   2)                  1.8651         0.366639   
     32. B(H  20,C  19)                  1.1094         0.335348   
     33. B(H  20,H   4)                  3.8930         0.010000   
     34. B(H  21,C  19)                  1.1094         0.335294   
     35. B(H  21,H   4)                  3.8880         0.010000   
     36. B(H  22,C  19)                  1.1099         0.334755   
     37. B(C  23,H   3)                  3.6631         0.010000   
     38. B(C  23,P   2)                  1.8650         0.366761   
     39. B(H  24,H   3)                  3.5066         0.010000   
     40. B(H  24,C  23)                  1.1094         0.335332   
     41. B(H  25,C  23)                  1.1099         0.334768   
     42. B(H  26,H   3)                  2.9476         0.010000   
     43. B(H  26,C  23)                  1.1094         0.335321   
     44. B(C  27,P   2)                  1.8651         0.366605   
     45. B(H  28,C  27)                  1.1098         0.334783   
     46. B(H  29,C  27)                  1.1094         0.335287   
     47. B(H  30,C  27)                  1.1094         0.335342   
     48. A(P   1,Ru  0,H   3)           88.0072         0.209176   
     49. A(H   3,Ru  0,H   6)          119.9351         0.336484   
     50. A(H   5,Ru  0,H   6)          119.6981         0.336547   
     51. A(P   1,Ru  0,H   5)           99.2727         0.209207   
     52. A(P   1,Ru  0,H   6)           88.3089         0.209219   
     53. A(H   3,Ru  0,H   5)          120.0520         0.336461   
     54. A(C   7,P   1,C  15)           97.5277         0.408667   
     55. A(Ru  0,P   1,C  11)          108.9393         0.225750   
     56. A(Ru  0,P   1,C  15)          105.1858         0.225512   
     57. A(C   7,P   1,C  11)           97.6510         0.409225   
     58. A(C  11,P   1,C  15)           97.5327         0.408784   
     59. A(Ru  0,P   1,C   7)          141.9294         0.225700   
     60. A(C  23,P   2,C  27)           97.7066         0.409240   
     61. A(H   4,P   2,C  19)           96.4484         0.148699   
     62. A(H   4,P   2,C  27)          128.5324         0.148697   
     63. A(C  19,P   2,C  23)           97.6876         0.409247   
     64. A(C  19,P   2,C  27)           97.6580         0.409216   
     65. A(H   4,P   2,C  23)          128.8657         0.148703   
     66. A(Ru  0,H   3,C  23)          158.6699         0.115306   
     67. A(H  24,H   3,H  26)           31.0133         0.090747   
     68. A(Ru  0,H   3,H  24)          143.1937         0.105478   
     69. A(Ru  0,H   3,H  26)          158.3879         0.115229   
     70. A(C  23,H   3,H  26)           14.8255         0.091789   
     71. A(C  23,H   3,H  24)           17.6277         0.090752   
     72. A(P   2,H   4,H  21)           39.0582         0.091545   
     73. A(H  20,H   4,H  21)           26.8679         0.089580   
     74. A(P   2,H   4,H  20)           39.0120         0.091535   
     75. A(C  19,H   4,H  20)           16.1972         0.089988   
     76. A(C  19,H   4,H  21)           16.2033         0.089992   
     77. A(P   2,H   4,C  19)           27.8636         0.093339   
     78. A(P   1,C   7,H  10)          109.3812         0.338912   
     79. A(H   8,C   7,H   9)          109.1857         0.284481   
     80. A(P   1,C   7,H   9)          110.7272         0.339119   
     81. A(H   9,C   7,H  10)          109.0774         0.284271   
     82. A(H   8,C   7,H  10)          109.1325         0.284320   
     83. A(P   1,C   7,H   8)          109.3131         0.339181   
     84. A(H  12,C  11,H  14)          109.1564         0.284304   
     85. A(P   1,C  11,H  14)          109.4120         0.339024   
     86. A(H  12,C  11,H  13)          109.1785         0.284473   
     87. A(P   1,C  11,H  13)          109.2665         0.339239   
     88. A(P   1,C  11,H  12)          110.6971         0.339233   
     89. A(H  13,C  11,H  14)          109.1066         0.284309   
     90. A(H  17,C  15,H  18)          109.2584         0.283845   
     91. A(H  16,C  15,H  18)          109.2281         0.283823   
     92. A(P   1,C  15,H  18)          110.6647         0.338458   
     93. A(H  16,C  15,H  17)          109.2266         0.283730   
     94. A(P   1,C  15,H  17)          109.1992         0.338340   
     95. A(P   1,C  15,H  16)          109.2429         0.338311   
     96. A(H  21,C  19,H  22)          109.1326         0.284351   
     97. A(H  20,C  19,H  22)          109.1422         0.284358   
     98. A(P   2,C  19,H  22)          110.7738         0.339066   
     99. A(H  20,C  19,H  21)          109.1201         0.284429   
    100. A(P   2,C  19,H  21)          109.3214         0.339157   
    101. A(P   2,C  19,H  20)          109.3263         0.339166   
    102. A(H   4,C  19,H  22)          166.4608         0.107176   
    103. A(H   4,C  19,H  21)           77.9388         0.107183   
    104. A(H   4,C  19,H  20)           78.1958         0.107184   
    105. A(P   2,C  19,H   4)           55.6880         0.112276   
    106. A(H   4,H  20,C  19)           85.6070         0.099622   
    107. A(H   4,H  21,C  19)           85.8579         0.099666   
    108. A(H   3,C  23,H  26)           42.8311         0.112380   
    109. A(H   3,C  23,H  25)          144.6986         0.112371   
    110. A(H   3,C  23,H  24)           73.1764         0.112380   
    111. A(P   2,C  23,H   3)          100.7873         0.118930   
    112. A(H  25,C  23,H  26)          109.1485         0.284357   
    113. A(H  24,C  23,H  26)          109.1164         0.284431   
    114. A(P   2,C  23,H  26)          109.3196         0.339181   
    115. A(H  24,C  23,H  25)          109.1477         0.284358   
    116. A(P   2,C  23,H  25)          110.7659         0.339087   
    117. A(P   2,C  23,H  24)          109.3184         0.339183   
    118. A(H   3,H  24,C  23)           89.1959         0.103646   
    119. A(H   3,H  26,C  23)          122.3434         0.112312   
    120. A(H  29,C  27,H  30)          109.1179         0.284428   
    121. A(H  28,C  27,H  30)          109.1430         0.284361   
    122. A(P   2,C  27,H  30)          109.3267         0.339160   
    123. A(H  28,C  27,H  29)          109.1327         0.284354   
    124. A(P   2,C  27,H  29)          109.3178         0.339151   
    125. A(P   2,C  27,H  28)          110.7783         0.339066   
    126. D(C   7,P   1,Ru  0,H   5)   -125.6966         0.010000   
    127. D(C  15,P   1,Ru  0,H   3)   -130.0800         0.010000   
    128. D(C  11,P   1,Ru  0,H   6)   -113.7373         0.010000   
    129. D(C  15,P   1,Ru  0,H   6)    -10.0426         0.010000   
    130. D(C  15,P   1,Ru  0,H   5)    109.7848         0.010000   
    131. D(C   7,P   1,Ru  0,H   3)     -5.5614         0.010000   
    132. D(C  11,P   1,Ru  0,H   3)    126.2253         0.010000   
    133. D(C   7,P   1,Ru  0,H   6)    114.4760         0.010000   
    134. D(C  11,P   1,Ru  0,H   5)      6.0901         0.010000   
    135. D(H  24,H   3,Ru  0,H   6)     39.9414         0.010000   
    136. D(H  24,H   3,Ru  0,P   1)    126.8396         0.010000   
    137. D(H  26,H   3,Ru  0,H   6)     99.2382         0.010000   
    138. D(C  23,H   3,Ru  0,H   6)     57.9677         0.010000   
    139. D(C  23,H   3,Ru  0,P   1)    144.8660         0.010000   
    140. D(C  23,H   3,Ru  0,H   5)   -115.5705         0.010000   
    141. D(H  26,H   3,Ru  0,P   1)   -173.8636         0.010000   
    142. D(H  24,H   3,Ru  0,H   5)   -133.5969         0.010000   
    143. D(H  26,H   3,Ru  0,H   5)    -74.3001         0.010000   
    144. D(H  21,H   4,P   2,C  27)     83.5475         0.010000   
    145. D(C  19,H   4,P   2,C  23)   -105.3068         0.010000   
    146. D(H  20,H   4,P   2,C  27)    126.8415         0.010000   
    147. D(H  20,H   4,P   2,C  23)    -83.6210         0.010000   
    148. D(H  20,H   4,P   2,C  19)     21.6858         0.010000   
    149. D(C  19,H   4,P   2,C  27)    105.1557         0.010000   
    150. D(H  21,H   4,P   2,C  23)   -126.9150         0.010000   
    151. D(H  21,H   4,P   2,C  19)    -21.6082         0.010000   
    152. D(H   9,C   7,P   1,C  15)    -49.7929         0.010000   
    153. D(H   8,C   7,P   1,Ru  0)    -56.1359         0.010000   
    154. D(H   8,C   7,P   1,C  15)     70.5346         0.010000   
    155. D(H   9,C   7,P   1,C  11)     48.9019         0.010000   
    156. D(H   8,C   7,P   1,C  11)    169.2293         0.010000   
    157. D(H  10,C   7,P   1,Ru  0)     63.2997         0.010000   
    158. D(H  10,C   7,P   1,C  15)   -170.0299         0.010000   
    159. D(H  10,C   7,P   1,C  11)    -71.3351         0.010000   
    160. D(H   9,C   7,P   1,Ru  0)   -176.4633         0.010000   
    161. D(H  14,C  11,P   1,C  15)    169.3106         0.010000   
    162. D(H  14,C  11,P   1,Ru  0)    -81.7403         0.010000   
    163. D(H  14,C  11,P   1,C   7)     70.6201         0.010000   
    164. D(H  13,C  11,P   1,Ru  0)     37.6542         0.010000   
    165. D(H  13,C  11,P   1,C  15)    -71.2949         0.010000   
    166. D(H  13,C  11,P   1,C   7)   -169.9854         0.010000   
    167. D(H  12,C  11,P   1,Ru  0)    157.9240         0.010000   
    168. D(H  12,C  11,P   1,C  15)     48.9748         0.010000   
    169. D(H  12,C  11,P   1,C   7)    -49.7157         0.010000   
    170. D(H  18,C  15,P   1,Ru  0)   -162.2257         0.010000   
    171. D(H  18,C  15,P   1,C  11)    -50.1934         0.010000   
    172. D(H  18,C  15,P   1,C   7)     48.6038         0.010000   
    173. D(H  17,C  15,P   1,Ru  0)    -41.9205         0.010000   
    174. D(H  17,C  15,P   1,C  11)     70.1118         0.010000   
    175. D(H  17,C  15,P   1,C   7)    168.9090         0.010000   
    176. D(H  16,C  15,P   1,C  11)   -170.4891         0.010000   
    177. D(H  16,C  15,P   1,C   7)    -71.6919         0.010000   
    178. D(H  16,C  15,P   1,Ru  0)     77.4786         0.010000   
    179. D(P   2,C  19,H   4,H  20)   -123.5012         0.010000   
    180. D(P   2,C  19,H   4,H  21)    123.7411         0.010000   
    181. D(H  22,C  19,P   2,C  23)    -49.4635         0.010000   
    182. D(H  21,C  19,P   2,H   4)     59.5119         0.010000   
    183. D(H  21,C  19,P   2,C  27)    -70.8612         0.010000   
    184. D(H  21,C  19,P   2,C  23)   -169.7596         0.010000   
    185. D(H  20,C  19,P   2,H   4)    -59.8807         0.010000   
    186. D(H  20,C  19,P   2,C  27)    169.7463         0.010000   
    187. D(H  20,C  19,H   4,P   2)    123.5012         0.010000   
    188. D(H  20,C  19,P   2,C  23)     70.8478         0.010000   
    189. D(H  22,C  19,H   4,H  20)   -124.2678         0.010000   
    190. D(H  22,C  19,H   4,H  21)    122.9745         0.010000   
    191. D(H  22,C  19,H   4,P   2)     -0.7666         0.010000   
    192. D(H  21,C  19,H   4,H  20)    112.7576         0.010000   
    193. D(H  21,C  19,H   4,P   2)   -123.7411         0.010000   
    194. D(H  20,C  19,H   4,H  21)   -112.7576         0.010000   
    195. D(H   4,H  20,C  19,H  22)    168.1824         0.111468   
    196. D(H   4,H  20,C  19,H  21)    -72.6394         0.111468   
    197. D(H   4,H  20,C  19,P   2)     46.8775         0.111468   
    198. D(C  19,H  20,H   4,H  21)     34.7070         0.010000   
    199. D(C  19,H  20,H   4,P   2)    -38.2519         0.010000   
    200. D(H   4,H  21,C  19,H  22)   -168.0018         0.111425   
    201. D(H   4,H  21,C  19,H  20)     72.8141         0.111425   
    202. D(H   4,H  21,C  19,P   2)    -46.7059         0.111425   
    203. D(C  19,H  21,H   4,H  20)    -34.6925         0.010000   
    204. D(C  19,H  21,H   4,P   2)     38.0818         0.010000   
    205. D(H  25,C  23,H   3,H  24)     99.5527         0.010000   
    206. D(H  25,C  23,H   3,H  26)    -46.4869         0.010000   
    207. D(H  25,C  23,H   3,Ru  0)     61.8029         0.010000   
    208. D(H  24,C  23,H   3,Ru  0)    -37.7499         0.010000   
    209. D(P   2,C  23,H   3,H  24)   -107.1106         0.010000   
    210. D(P   2,C  23,H   3,H  26)    106.8498         0.010000   
    211. D(P   2,C  23,H   3,Ru  0)   -144.8604         0.010000   
    212. D(H  26,C  23,P   2,C  19)    -70.8551         0.010000   
    213. D(H  25,C  23,P   2,H   4)    154.1889         0.010000   
    214. D(H  25,C  23,P   2,C  27)    -49.4017         0.010000   
    215. D(H  24,C  23,H   3,H  26)   -146.0396         0.010000   
    216. D(H  25,C  23,P   2,C  19)     49.4547         0.010000   
    217. D(H  24,C  23,P   2,H   4)    -85.5031         0.010000   
    218. D(H  24,C  23,P   2,C  27)     70.9063         0.010000   
    219. D(H  24,C  23,P   2,C  19)    169.7628         0.010000   
    220. D(H   3,H  24,C  23,H  26)    -23.6993         0.111455   
    221. D(H   3,H  24,C  23,H  25)   -142.8979         0.111455   
    222. D(H   3,H  24,C  23,P   2)     95.8084         0.111455   
    223. D(C  23,H  24,H   3,H  26)     16.1063         0.010000   
    224. D(C  23,H  24,H   3,Ru  0)    158.1798         0.010000   
    225. D(H   3,H  26,C  23,H  25)    153.6642         0.111447   
    226. D(H   3,H  26,C  23,H  24)     34.4660         0.111447   
    227. D(H   3,H  26,C  23,P   2)    -85.0409         0.111447   
    228. D(C  23,H  26,H   3,H  24)    -19.1673         0.010000   
    229. D(C  23,H  26,H   3,Ru  0)   -110.3357         0.010000   
    230. D(H  29,C  27,P   2,H   4)    -33.7422         0.010000   
    231. D(H  29,C  27,P   2,C  23)    169.7321         0.010000   
    232. D(H  29,C  27,P   2,C  19)     70.8500         0.010000   
    233. D(H  28,C  27,P   2,H   4)   -154.0389         0.010000   
    234. D(H  28,C  27,P   2,C  23)     49.4354         0.010000   
    235. D(H  28,C  27,P   2,C  19)    -49.4467         0.010000   
    -----------------------------------------------------------------

Number of atoms                         .... 31
Number of degrees of freedom            .... 235


         *************************************************************
         *                GEOMETRY OPTIMIZATION CYCLE   1            *
         *************************************************************
---------------------------------
CARTESIAN COORDINATES (ANGSTROEM)
---------------------------------
  Ru    -2.265350    1.119790   -2.517730
  P     -3.420850    3.766920   -0.261200
  P     -1.356650   -1.949190    2.793290
  H     -1.699130    0.198550   -1.043830
  H     -1.984260    1.183200    3.605170
  H     -1.069840    2.080950   -3.511450
  H     -3.988210    0.938850   -3.100090
  C     -3.615980    4.171810    1.549160
  H     -4.233660    3.389480    2.035500
  H     -4.107090    5.157910    1.680240
  H     -2.615850    4.197570    2.030870
  C     -2.675330    5.389320   -0.799520
  H     -3.277820    6.241530   -0.423670
  H     -2.642190    5.427130   -1.907640
  H     -1.641800    5.470450   -0.402040
  C     -5.178560    4.120570   -0.781760
  H     -5.844890    3.322730   -0.387830
  H     -5.236070    4.130540   -1.891720
  H     -5.513500    5.104150   -0.388650
  C      0.372030   -2.004170    3.491320
  H      0.997420   -1.241370    2.983620
  H      0.336610   -1.780740    4.577440
  H      0.825750   -3.005780    3.340590
  C     -0.971590   -2.668890    1.116380
  H     -1.920190   -2.897180    0.588360
  H     -0.376640   -3.600580    1.215220
  H     -0.394530   -1.929800    0.523480
  C     -1.997350   -3.507530    3.593150
  H     -1.294140   -4.350820    3.431560
  H     -2.117530   -3.338010    4.682950
  H     -2.983000   -3.766680    3.154880

----------------------------
CARTESIAN COORDINATES (A.U.)
----------------------------
  NO LB      ZA    FRAG     MASS         X           Y           Z
   0 Ru   16.0000*   0   101.070   -4.280891    2.116096   -4.757820
   1 P    15.0000    0    30.974   -6.464470    7.118447   -0.493596
   2 P    15.0000    0    30.974   -2.563697   -3.683435    5.278553
   3 H     1.0000    0     1.008   -3.210890    0.375205   -1.972553
   4 H     1.0000    0     1.008   -3.749708    2.235924    6.812784
   5 H     1.0000    0     1.008   -2.021705    3.932426   -6.635679
   6 H     1.0000    0     1.008   -7.536625    1.774169   -5.858321
   7 C     6.0000    0    12.011   -6.833212    7.883578    2.927488
   8 H     1.0000    0     1.008   -8.000458    6.405189    3.846538
   9 H     1.0000    0     1.008   -7.761275    9.747037    3.175193
  10 H     1.0000    0     1.008   -4.943240    7.932258    3.837788
  11 C     6.0000    0    12.011   -5.055641   10.184339   -1.510874
  12 H     1.0000    0     1.008   -6.194182   11.794782   -0.800620
  13 H     1.0000    0     1.008   -4.993015   10.255789   -3.604917
  14 H     1.0000    0     1.008   -3.102552   10.337652   -0.759745
  15 C     6.0000    0    12.011   -9.786060    7.786749   -1.477312
  16 H     1.0000    0     1.008  -11.045241    6.279050   -0.732892
  17 H     1.0000    0     1.008   -9.894738    7.805589   -3.574833
  18 H     1.0000    0     1.008  -10.419005    9.645446   -0.734442
  19 C     6.0000    0    12.011    0.703035   -3.787332    6.597639
  20 H     1.0000    0     1.008    1.884851   -2.345849    5.638225
  21 H     1.0000    0     1.008    0.636101   -3.365111    8.650108
  22 H     1.0000    0     1.008    1.560441   -5.680101    6.312800
  23 C     6.0000    0    12.011   -1.836039   -5.043471    2.109652
  24 H     1.0000    0     1.008   -3.628633   -5.474877    1.111839
  25 H     1.0000    0     1.008   -0.711746   -6.804110    2.296433
  26 H     1.0000    0     1.008   -0.745554   -3.646793    0.989234
  27 C     6.0000    0    12.011   -3.774444   -6.628271    6.790069
  28 H     1.0000    0     1.008   -2.445570   -8.221858    6.484709
  29 H     1.0000    0     1.008   -4.001552   -6.307925    8.849493
  30 H     1.0000    0     1.008   -5.637053   -7.117994    5.961859
* core charge reduced due to ECP

--------------------------------
INTERNAL COORDINATES (ANGSTROEM)
--------------------------------
 Ru     0   0   0     0.000000000000     0.00000000     0.00000000
 P      1   0   0     3.665297413280     0.00000000     0.00000000
 P      1   2   0     6.200911817693    82.89683282     0.00000000
 H      1   2   3     1.828023368560    88.00723034   351.59816415
 H      3   1   2     3.296196377433    73.30539280   349.15141370
 H      1   2   3     1.827717741912    99.27270517   231.46291932
 H      1   2   3     1.827601989712    88.30894375   111.63554070
 C      2   1   3     1.865318996472   141.92943145     2.84043762
 H      8   2   1     1.109096662559   109.31309698   303.86413117
 H      8   2   1     1.109398128942   110.72723401   183.53670616
 H      8   2   1     1.110390975558   109.38122810    63.29972456
 C      2   1   3     1.864878079875   108.93931429   134.62716134
 H     12   2   1     1.109287747476   110.69706834   157.92396641
 H     12   2   1     1.109260019157   109.26652170    37.65423163
 H     12   2   1     1.110295766091   109.41201520   278.25974345
 C      2   1   3     1.866974954358   105.18582999   238.32184427
 H     16   2   1     1.111631764300   109.24293407    77.47860714
 H     16   2   1     1.111493590895   109.19916080   318.07949095
 H     16   2   1     1.110922991075   110.66466017   197.77429828
 C      3   1   2     1.865101397699   118.09678662   260.71022614
 H     20   3   1     1.109385317237   109.32634802    14.61090475
 H     20   3   1     1.109428769998   109.32144437   134.00347029
 H     20   3   1     1.109866642169   110.77379339   254.29965202
 C      3   1   2     1.865011110342    56.71107612   180.44773488
 H     24   3   1     1.109397766583   109.31840346   288.44092368
 H     24   3   1     1.109856343947   110.76592345   168.13287433
 H     24   3   1     1.109406454686   109.31957177    47.82306869
 C      3   1   2     1.865126286663   136.92685365   118.31432517
 H     28   3   1     1.109843978359   110.77825071    97.65595419
 H     28   3   1     1.109434226442   109.31775135   217.95267582
 H     28   3   1     1.109389578958   109.32672201   337.34065639

---------------------------
INTERNAL COORDINATES (A.U.)
---------------------------
 Ru     0   0   0     0.000000000000     0.00000000     0.00000000
 P      1   0   0     6.926408310470     0.00000000     0.00000000
 P      1   2   0    11.718025116035    82.89683282     0.00000000
 H      1   2   3     3.454463532986    88.00723034   351.59816415
 H      3   1   2     6.228908436971    73.30539280   349.15141370
 H      1   2   3     3.453885982323    99.27270517   231.46291932
 H      1   2   3     3.453667242366    88.30894375   111.63554070
 C      2   1   3     3.524942055733   141.92943145     2.84043762
 H      8   2   1     2.095888948283   109.31309698   303.86413117
 H      8   2   1     2.096458637185   110.72723401   183.53670616
 H      8   2   1     2.098334845382   109.38122810    63.29972456
 C      2   1   3     3.524108844118   108.93931429   134.62716134
 H     12   2   1     2.096250046444   110.69706834   157.92396641
 H     12   2   1     2.096197647515   109.26652170    37.65423163
 H     12   2   1     2.098154925565   109.41201520   278.25974345
 C      2   1   3     3.528071362627   105.18582999   238.32184427
 H     16   2   1     2.100679596294   109.24293407    77.47860714
 H     16   2   1     2.100418486400   109.19916080   318.07949095
 H     16   2   1     2.099340209009   110.66466017   197.77429828
 C      3   1   2     3.524530853645   118.09678662   260.71022614
 H     20   3   1     2.096434426570   109.32634802    14.61090475
 H     20   3   1     2.096516540390   109.32144437   134.00347029
 H     20   3   1     2.097343998875   110.77379339   254.29965202
 C      3   1   2     3.524360235267    56.71107612   180.44773488
 H     24   3   1     2.096457952426   109.31840346   288.44092368
 H     24   3   1     2.097324538055   110.76592345   168.13287433
 H     24   3   1     2.096474370562   109.31957177    47.82306869
 C      3   1   2     3.524577886970   136.92685365   118.31432517
 H     28   3   1     2.097301170480   110.77825071    97.65595419
 H     28   3   1     2.096526851573   109.31775135   217.95267582
 H     28   3   1     2.096442480056   109.32672201   337.34065639

---------------------
BASIS SET INFORMATION
---------------------
There are 4 groups of distinct atoms

 Group   1 Type Ru  : 7s6p5d1f contracted to 5s3p2d1f pattern {31111/411/41/1}
 Group   2 Type P   : 10s7p1d contracted to 4s3p1d pattern {5311/511/1}
 Group   3 Type H   : 4s1p contracted to 2s1p pattern {31/1}
 Group   4 Type C   : 7s4p1d contracted to 3s2p1d pattern {511/31/1}

Atom   0Ru   basis set group =>   1
Atom   1P    basis set group =>   2
Atom   2P    basis set group =>   2
Atom   3H    basis set group =>   3
Atom   4H    basis set group =>   3
Atom   5H    basis set group =>   3
Atom   6H    basis set group =>   3
Atom   7C    basis set group =>   4
Atom   8H    basis set group =>   3
Atom   9H    basis set group =>   3
Atom  10H    basis set group =>   3
Atom  11C    basis set group =>   4
Atom  12H    basis set group =>   3
Atom  13H    basis set group =>   3
Atom  14H    basis set group =>   3
Atom  15C    basis set group =>   4
Atom  16H    basis set group =>   3
Atom  17H    basis set group =>   3
Atom  18H    basis set group =>   3
Atom  19C    basis set group =>   4
Atom  20H    basis set group =>   3
Atom  21H    basis set group =>   3
Atom  22H    basis set group =>   3
Atom  23C    basis set group =>   4
Atom  24H    basis set group =>   3
Atom  25H    basis set group =>   3
Atom  26H    basis set group =>   3
Atom  27C    basis set group =>   4
Atom  28H    basis set group =>   3
Atom  29H    basis set group =>   3
Atom  30H    basis set group =>   3
---------------------------------
AUXILIARY/J BASIS SET INFORMATION
---------------------------------
There are 4 groups of distinct atoms

 Group   1 Type Ru  : 11s5p5d3f3g contracted to 8s5p5d2f3g pattern {41111111/11111/11111/21/111}
 Group   2 Type P   : 14s5p5d2f1g contracted to 8s4p3d1f1g pattern {71111111/2111/311/2/1}
 Group   3 Type H   : 5s2p1d contracted to 3s1p1d pattern {311/2/1}
 Group   4 Type C   : 12s5p4d2f1g contracted to 6s4p3d1f1g pattern {711111/2111/211/2/1}

Atom   0Ru   basis set group =>   1
Atom   1P    basis set group =>   2
Atom   2P    basis set group =>   2
Atom   3H    basis set group =>   3
Atom   4H    basis set group =>   3
Atom   5H    basis set group =>   3
Atom   6H    basis set group =>   3
Atom   7C    basis set group =>   4
Atom   8H    basis set group =>   3
Atom   9H    basis set group =>   3
Atom  10H    basis set group =>   3
Atom  11C    basis set group =>   4
Atom  12H    basis set group =>   3
Atom  13H    basis set group =>   3
Atom  14H    basis set group =>   3
Atom  15C    basis set group =>   4
Atom  16H    basis set group =>   3
Atom  17H    basis set group =>   3
Atom  18H    basis set group =>   3
Atom  19C    basis set group =>   4
Atom  20H    basis set group =>   3
Atom  21H    basis set group =>   3
Atom  22H    basis set group =>   3
Atom  23C    basis set group =>   4
Atom  24H    basis set group =>   3
Atom  25H    basis set group =>   3
Atom  26H    basis set group =>   3
Atom  27C    basis set group =>   4
Atom  28H    basis set group =>   3
Atom  29H    basis set group =>   3
Atom  30H    basis set group =>   3
-------------------------
ECP PARAMETER INFORMATION
-------------------------

 Group 1, Type Ru ECP Def2-ECP (replacing 28 core electrons, lmax=3)

Atom   0Ru   ECP group =>   1



           ************************************************************
           *        Program running with 32 parallel MPI-processes    *
           *              working on a common directory               *
           ************************************************************
------------------------------------------------------------------------------
                             ORCA STARTUP CALCULATIONS
                           -- RI-GTO INTEGRALS CHOSEN --
------------------------------------------------------------------------------
------------------------------------------------------------------------------
                   ___                                                        
                  /   \      - P O W E R E D   B Y -                         
                 /     \                                                     
                 |  |  |   _    _      __       _____    __    __             
                 |  |  |  | |  | |    /  \     |  _  \  |  |  /  |          
                  \  \/   | |  | |   /    \    | | | |  |  | /  /          
                 / \  \   | |__| |  /  /\  \   | |_| |  |  |/  /          
                |  |  |   |  __  | /  /__\  \  |    /   |      \           
                |  |  |   | |  | | |   __   |  |    \   |  |\   \          
                \     /   | |  | | |  |  |  |  | |\  \  |  | \   \       
                 \___/    |_|  |_| |__|  |__|  |_| \__\ |__|  \__/        
                                                                              
                      - O R C A' S   B I G   F R I E N D -                    
                                      &                                       
                       - I N T E G R A L  F E E D E R -                       
                                                                              
 v1 FN, 2020, v2 2021, v3 2022-2024                                           
------------------------------------------------------------------------------


----------------------
SHARK INTEGRAL PACKAGE
----------------------

Number of atoms                             ...     31
Number of basis functions                   ...    261
Number of shells                            ...    129
Maximum angular momentum                    ...      3
Integral batch strategy                     ... SHARK/LIBINT Hybrid
RI-J (if used) integral strategy            ... SPLIT-RIJ (Revised 2003 algorithm where possible)
Printlevel                                  ...      1
Contraction scheme used                     ... SEGMENTED contraction
Prescreening option                         ... SCHWARTZ
   Thresh                                   ... 2.500e-11
   Tcut                                     ... 2.500e-12
   Tpresel                                  ... 2.500e-12 
Coulomb Range Separation                    ... NOT USED
Exchange Range Separation                   ... Long Range
   Mu parameter                             ... 3.000e-01
   Scaling (regular/separated)              ... 1.670e-01 8.330e-01
Robust (split-)RI terms used:
  metric    (central integrals)             ... YES
  density   (r.h.s.  integrals)             ... YES
  potential (l.h.s.  integrals)             ... YES
Multipole approximations                    ... NOT USED
Finite Nucleus Model                        ... NOT USED
CABS basis                                  ... NOT available
Auxiliary Coulomb fitting basis             ... AVAILABLE
   # of basis functions in Aux-J            ...    727
   # of shells in Aux-J                     ...    257
   Maximum angular momentum in Aux-J        ...      4
Auxiliary J/K fitting basis                 ... NOT available
Auxiliary Correlation fitting basis         ... NOT available
Auxiliary 'external' fitting basis          ... NOT available

Checking pre-screening integrals            ... done (  0.0 sec) Dimension = 129
   => SHARK Basis and OBASIS are compatible. Storing Pre-screening
Shell pair information
Shell pair cut-off parameter TPreSel        ...   2.5e-12
Total number of shell pairs                 ...      8385
Shell pairs after pre-screening             ...      5651
Total number of primitive shell pairs       ...     28408
Primitive shell pairs kept                  ...     12877
          la=0 lb=0:   2047 shell pairs
          la=1 lb=0:   2138 shell pairs
          la=1 lb=1:    567 shell pairs
          la=2 lb=0:    515 shell pairs
          la=2 lb=1:    270 shell pairs
          la=2 lb=2:     37 shell pairs
          la=3 lb=0:     51 shell pairs
          la=3 lb=1:     20 shell pairs
          la=3 lb=2:      5 shell pairs
          la=3 lb=3:      1 shell pairs

Checking whether 4 symmetric matrices of dimension 261 fit in memory
:Max Core in MB      =   4096.00
 MB in use           =     10.33
 MB left             =   4085.67
 MB needed           =      1.04
 Data fit in memory  = YES
Calculating RI/J V-Matrix + Cholesky decomp.... done (  0.1 sec)
Calculating Nuclear repulsion               ... done (  0.0 sec) ENN=    656.913347969580 Eh

Diagonalization of the overlap matrix:
Smallest eigenvalue                        ... 2.666e-03
Time for diagonalization                   ...    0.006 sec
Threshold for overlap eigenvalues          ... 1.000e-07
Number of eigenvalues below threshold      ... 0
Time for construction of square roots      ...    0.004 sec
Total time needed                          ...    0.013 sec

-------------------
DFT GRID GENERATION
-------------------

General Integration Accuracy     IntAcc      ... 4.959
Radial Grid Type                 RadialGrid  ... OptM3 with GC (2021)
Angular Grid (max. ang.)         AngularGrid ... 6 (Lebedev-590)
Angular grid pruning method      GridPruning ... 4 (adaptive)
Weight generation scheme         WeightScheme... mBecke (2022)
Basis function cutoff            BFCut       ... 1.0000e-11
Integration weight cutoff        WCut        ... 1.0000e-14
Partially contracted basis set               ... off
Rotationally invariant grid construction     ... off
Angular grids for H and He will be reduced by one unit

Total number of grid points                  ...   333903
Total number of batches                      ...     5232
Average number of points per batch           ...       63
Average number of grid points per atom       ...    10771

--------------------
COSX GRID GENERATION
--------------------

GRIDX 1
-------
General Integration Accuracy     IntAcc      ... 4.020
Radial Grid Type                 RadialGrid  ... OptM3 with GC (2021)
Angular Grid (max. ang.)         AngularGrid ... 2 (Lebedev-110)
Angular grid pruning method      GridPruning ... 4 (adaptive)
Weight generation scheme         WeightScheme... mBecke (2022)
Basis function cutoff            BFCut       ... 1.0000e-11
Integration weight cutoff        WCut        ... 1.0000e-14
Partially contracted basis set               ... on
Rotationally invariant grid construction     ... off
Angular grids for H and He will be reduced by one unit

Total number of grid points                  ...    36867
Total number of batches                      ...      306
Average number of points per batch           ...      120
Average number of grid points per atom       ...     1189
UseSFitting                                  ... on

GRIDX 2
-------
General Integration Accuracy     IntAcc      ... 4.338
Radial Grid Type                 RadialGrid  ... OptM3 with GC (2021)
Angular Grid (max. ang.)         AngularGrid ... 3 (Lebedev-194)
Angular grid pruning method      GridPruning ... 4 (adaptive)
Weight generation scheme         WeightScheme... mBecke (2022)
Basis function cutoff            BFCut       ... 1.0000e-11
Integration weight cutoff        WCut        ... 1.0000e-14
Partially contracted basis set               ... on
Rotationally invariant grid construction     ... off
Angular grids for H and He will be reduced by one unit

Total number of grid points                  ...    74729
Total number of batches                      ...      598
Average number of points per batch           ...      124
Average number of grid points per atom       ...     2411
UseSFitting                                  ... on

GRIDX 3
-------
General Integration Accuracy     IntAcc      ... 4.871
Radial Grid Type                 RadialGrid  ... OptM3 with GC (2021)
Angular Grid (max. ang.)         AngularGrid ... 4 (Lebedev-302)
Angular grid pruning method      GridPruning ... 4 (adaptive)
Weight generation scheme         WeightScheme... mBecke (2022)
Basis function cutoff            BFCut       ... 1.0000e-11
Integration weight cutoff        WCut        ... 1.0000e-14
Partially contracted basis set               ... on
Rotationally invariant grid construction     ... off
Angular grids for H and He will be reduced by one unit

Total number of grid points                  ...   149399
Total number of batches                      ...     1184
Average number of points per batch           ...      126
Average number of grid points per atom       ...     4819
UseSFitting                                  ... on
Grids setup in   4.2 sec
Initializing property integral containers    ... done (  0.0 sec)

SHARK setup successfully completed in   4.5 seconds

Maximum memory used throughout the entire STARTUP-calculation: 63.7 MB


           ************************************************************
           *        Program running with 32 parallel MPI-processes    *
           *              working on a common directory               *
           ************************************************************
-------------------------------------------------------------------------------
                                 ORCA GUESS
                   Start orbitals & Density for SCF / CASSCF
-------------------------------------------------------------------------------

------------
SCF SETTINGS
------------
Hamiltonian:
 Density Functional     Method          .... DFT(GTOs)
 Exchange Functional    Exchange        .... WB97X-V
 Correlation Functional Correlation     .... WB97X-V
 Gradients option       PostSCFGGA      .... off
 Hybrid DFT is turned on
   Fraction HF Exchange ScalHFX         ....  0.167000
   Scaling of DF-GGA-X  ScalDFX         ....  0.000000
   Scaling of DF-GGA-C  ScalDFC         ....  1.000000
   Scaling of DF-LDA-C  ScalLDAC        ....  1.000000
   Perturbative correction              ....  0.000000
 Long-range corrected/Screened/Range-Separated Hybrid DFT is turned on
   Amount of maximum screened exact exchange              ....  0.833000
   Range separation parameter mu (erf(mu*r12)/r12)        ....  0.300000
 RI-approximation to the Coulomb term is turned on
   Number of AuxJ basis functions       .... 727
   RIJ-COSX (HFX calculated with COS-X)).... on


General Settings:
 Integral files         IntName         .... 15h_pme3_opt
 Hartree-Fock type      HFTyp           .... RHF
 Total Charge           Charge          ....    0
 Multiplicity           Mult            ....    1
 Number of Electrons    NEL             ....  104
 Basis Dimension        Dim             ....  261
 Nuclear Repulsion      ENuc            ....    656.9133479696 Eh

Convergence Acceleration:
 AO-DIIS                CNVDIIS         .... on
   Start iteration      DIISMaxIt       ....    12
   Startup error        DIISStart       ....  0.200000
   # of expansion vecs  DIISMaxEq       ....     5
   Bias factor          DIISBfac        ....   1.050
   Max. coefficient     DIISMaxC        ....  10.000
 MO-DIIS                CNVKDIIS        .... off
 Trust-Rad. Augm. Hess. CNVTRAH         .... auto
   Auto Start mean grad. ratio tolernc. ....  1.125000
   Auto Start start iteration           ....    50
   Auto Start num. interpolation iter.  ....    10
   Max. Number of Micro iterations      ....    24
   Max. Number of Macro iterations      .... Maxiter - #DIIS iter
   Number of Davidson start vectors     ....     2
   Converg. threshold    (grad. norm)   ....   1.000e-05
   Grad. Scal. Fac. for Micro threshold ....   0.100
   Minimum threshold for Micro iter.    ....   1.000e-02
   NR start threshold (gradient norm)   ....   1.000e-04
   Initial trust radius                 ....   0.400
   Minimum AH scaling param. (alpha)    ....   1.000
   Maximum AH scaling param. (alpha)    .... 1000.000
   Quad. conv. algorithm                .... NR
   White noise on init. David. guess    .... on
   Maximum white noise                  ....   0.010
   Pseudo random numbers                .... off
   Inactive MOs                         .... canonical
   Orbital update algorithm             .... Taylor
   Preconditioner                       .... Diag
   Full preconditioner red. dimension   ....   250
 SOSCF                 CNVSOSCF           .... on
   Start iteration     SOSCFMaxIt         ....   150
   Startup grad/error  SOSCFStart         ....  0.003300
   Hessian update      SOSCFHessUp        .... L-BFGS
   Autom. constraints  SOSCFAutoConstrain .... off
 Level Shifting         CNVShift        .... on
   Level shift para.    LevelShift      ....    0.2500
   Turn off err/grad.   ShiftErr        ....    0.0010
 Zerner damping         CNVZerner       .... off
 Static damping         CNVDamp         .... on
   Fraction old density DampFac         ....    0.7000
   Max. Damping (<1)    DampMax         ....    0.9800
   Min. Damping (>=0)   DampMin         ....    0.0000
   Turn off err/grad.   DampErr         ....    0.1000

SCF Procedure:
 Maximum # iterations   MaxIter         ....   125
 SCF integral mode      SCFMode         .... Direct
   Integral package                     .... SHARK and LIBINT hybrid scheme
 Reset frequency        DirectResetFreq ....    20
 Integral Threshold     Thresh          ....  2.500e-11 Eh
 Primitive CutOff       TCut            ....  2.500e-12 Eh

Convergence Tolerance:
 Convergence Check Mode ConvCheckMode   .... Total+1el-Energy
 Convergence forced     ConvForced      .... 0
 Energy Change          TolE            ....  1.000e-08 Eh
 1-El. energy change                    ....  1.000e-05 Eh
 Orbital Gradient       TolG            ....  1.000e-05
 Orbital Rotation angle TolX            ....  1.000e-05
 DIIS Error             TolErr          ....  5.000e-07

------------------------------
INITIAL GUESS: MODEL POTENTIAL
------------------------------
Loading Hartree-Fock densities                     ... done
Atomic calculation to generate a density for atom 0 (Ru with ECP)
  Multiplicity assumed   :    5
  Atomic configuration   : 1s2 2s2 2p6 3s2 3p6 4s2 3d10 4p6 5s2 4d6 
  Number of open shells  : 1
  Command: /cluster/projects/nn14654k/ylvaos/orca_6_1_1_linux_x86-64_shared_openmpi418/orca 15h_pme3_opt_atom44.inp "" > 15h_pme3_opt_atom44.out
Returned from the atomic calculation with res=0
Calculating cut-offs                               ... done
Initializing the effective Hamiltonian             ... done
Setting up the integral package (SHARK)            ... done
Starting the Coulomb interaction                   ... done (   0.0 sec)
Making the grid                                    ... done (   0.1 sec)
Mapping shells                                     ... done
Starting the XC term evaluation                    ... done (   0.0 sec)
  promolecular density results
     # of electrons  =    131.991235023
     EX              =   -157.707868014
     EC              =     -6.673148586
     EX+EC           =   -164.381016600
Transforming the Hamiltonian                       ... done (   0.0 sec)
Diagonalizing the Hamiltonian                      ... done (   0.0 sec)
Back transforming the eigenvectors                 ... done (   0.0 sec)
Now organizing SCF variables                       ... done
                      ------------------
                      INITIAL GUESS DONE (   1.4 sec)
                      ------------------
             **** ENERGY FILE WAS UPDATED (15h_pme3_opt.en.tmp) ****
Finished Guess after   1.7 sec
Maximum memory used throughout the entire GUESS-calculation: 14.7 MB


           ************************************************************
           *        Program running with 32 parallel MPI-processes    *
           *              working on a common directory               *
           ************************************************************

-------------------------------------------------------------------------------------------
                                      ORCA LEAN-SCF
                              memory conserving SCF solver
-------------------------------------------------------------------------------------------

----------------------------------------D-I-I-S--------------------------------------------
Iteration    Energy (Eh)           Delta-E    RMSDP     MaxDP     DIISErr   Damp  Time(sec)
-------------------------------------------------------------------------------------------
               ***  Starting incremental Fock matrix formation  ***
    1    -1017.4298991758998909     0.00e+00  4.29e-02  5.16e-01  6.01e-01  0.700   0.9
Warning: op=0 Small HOMO/LUMO gap (  -0.610) - skipping pre-diagonalization
         LevelShift set to 0.710 Eh
         Will do a full diagonalization
    2    -1017.9352478024752600    -5.05e-01  2.36e-02  2.67e-01  2.82e-01  0.700   0.6
    3    -1017.1699627371710903     7.65e-01  2.10e-02  2.21e-01  2.48e-01  0.700   0.6
                               ***Turning on AO-DIIS***
    4    -1017.9239711898478618    -7.54e-01  1.29e-02  1.38e-01  1.32e-01  0.700   0.5
    5    -1018.1626877203025288    -2.39e-01  8.43e-03  8.28e-02  1.27e-01  0.700   0.5
    6    -1018.2250794502642748    -6.24e-02  5.91e-03  4.94e-02  1.89e-01  0.700   0.5
    7    -1018.2299626920998890    -4.88e-03  4.30e-03  3.64e-02  2.24e-01  0.700   0.5
    8    -1018.2336678907699934    -3.71e-03  3.28e-03  2.65e-02  2.38e-01  0.700   0.5
    9    -1018.2446436598941091    -1.10e-02  2.72e-03  1.75e-02  2.40e-01  0.700   0.5
   10    -1018.2670942910490339    -2.25e-02  3.46e-03  3.44e-02  2.31e-01  0.700   0.5
   11    -1018.3201584463845393    -5.31e-02  6.92e-03  6.51e-02  2.02e-01  0.700   0.5
   12    -1018.4285076330218089    -1.08e-01  8.17e-03  7.26e-02  1.38e-01  0.700   0.5
   13    -1018.5238281402096163    -9.53e-02  7.58e-03  5.92e-02  1.06e-01  0.700   0.5
   14    -1018.5926493350043529    -6.88e-02  6.35e-03  4.35e-02  8.15e-02  0.700   0.5
   15    -1018.6451230620730257    -5.25e-02  1.74e-02  1.44e-01  6.20e-02  0.000   0.5
   16    -1018.7752279909482240    -1.30e-01  4.13e-03  6.51e-02  4.51e-02  0.000   0.6
   17    -1018.7898639756422199    -1.46e-02  4.26e-03  6.85e-02  4.16e-02  0.000   0.5
   18    -1018.8017603395192054    -1.19e-02  4.21e-03  6.04e-02  3.83e-02  0.000   0.5
   19    -1018.8111621519947221    -9.40e-03  3.55e-03  4.54e-02  3.52e-02  0.000   0.5
   20    -1018.8185091257689692    -7.35e-03  3.39e-03  4.23e-02  3.02e-02  0.000   0.5
               *** Restarting incremental Fock matrix formation ***
                             ****Resetting DIIS****
Warning: op=0 Small HOMO/LUMO gap (   0.061) - skipping pre-diagonalization
         Will do a full diagonalization
   21    -1018.8245438525207192    -6.03e-03  1.44e-02  2.22e-01  2.56e-02  0.000   0.6
   22    -1018.7968924862723270     2.77e-02  3.78e-03  4.89e-02  8.89e-02  0.000   0.6
   23    -1018.8241590796899345    -2.73e-02  1.84e-03  2.54e-02  5.27e-02  0.000   0.5
   24    -1018.8320342736219573    -7.88e-03  2.32e-03  2.00e-02  3.55e-02  0.000   0.5
   25    -1018.8380812813195462    -6.05e-03  4.20e-03  5.05e-02  2.04e-02  0.000   0.5
   26    -1018.8443073931191520    -6.23e-03  3.91e-03  5.93e-02  1.70e-02  0.000   0.5
   27    -1018.8485928754503220    -4.29e-03  4.17e-03  7.26e-02  1.57e-02  0.000   0.5
   28    -1018.8527394438326610    -4.15e-03  3.22e-03  5.98e-02  1.39e-02  0.000   0.5
   29    -1018.8556235265871237    -2.88e-03  4.29e-03  8.26e-02  1.25e-02  0.000   0.5
   30    -1018.8589960260976568    -3.37e-03  5.59e-03  1.05e-01  1.02e-02  0.000   0.5
   31    -1018.8623811717613989    -3.39e-03  3.35e-03  5.49e-02  6.92e-03  0.000   0.5
   32    -1018.8637649815952955    -1.38e-03  3.40e-03  5.36e-02  5.26e-03  0.000   0.5
   33    -1018.8645833646105530    -8.18e-04  1.50e-03  2.62e-02  7.52e-03  0.000   0.5
                              *** Initializing SOSCF ***
---------------------------------------S-O-S-C-F--------------------------------------
Iteration    Energy (Eh)           Delta-E    RMSDP     MaxDP     MaxGrad    Time(sec)
--------------------------------------------------------------------------------------
   34    -1018.8650953011558613    -5.12e-04  2.27e-03  3.39e-02  2.42e-03     0.5
               *** Restarting incremental Fock matrix formation ***
   35    -1018.8654683498148188    -3.73e-04  6.56e-04  5.88e-03  2.10e-03     0.9
   36    -1018.8655638189657111    -9.55e-05  5.62e-03  7.79e-02  2.05e-03     0.8
   37    -1018.8660593419190263    -4.96e-04  2.98e-03  3.26e-02  3.32e-03     0.8
   38    -1018.8662983854464983    -2.39e-04  6.57e-04  6.56e-03  3.44e-03     0.8
   39    -1018.8664165594661881    -1.18e-04  1.90e-03  2.27e-02  8.60e-04     0.8
   40    -1018.8665007753261307    -8.42e-05  2.01e-03  2.23e-02  8.22e-04     0.8
   41    -1018.8665582814876416    -5.75e-05  1.20e-03  1.11e-02  7.13e-04     0.7
   42    -1018.8665835676474671    -2.53e-05  9.18e-04  9.47e-03  4.07e-04     0.7
   43    -1018.8665941102055967    -1.05e-05  3.83e-04  3.80e-03  4.30e-04     0.7
   44    -1018.8665989398848524    -4.83e-06  3.87e-04  4.38e-03  1.86e-04     0.7
   45    -1018.8666009731202848    -2.03e-06  1.11e-04  1.07e-03  1.58e-04     0.7
   46    -1018.8666020573709829    -1.08e-06  9.60e-05  9.45e-04  1.01e-04     0.6
   47    -1018.8666024950143765    -4.38e-07  8.21e-05  1.01e-03  5.36e-05     0.6
   48    -1018.8666027639501408    -2.69e-07  8.89e-05  1.23e-03  4.69e-05     0.6
   49    -1018.8666029765277017    -2.13e-07  7.32e-05  1.06e-03  3.90e-05     0.6
   50    -1018.8666031569882762    -1.80e-07  6.73e-05  7.46e-04  3.68e-05     0.6
   51    -1018.8666033190850158    -1.62e-07  6.08e-05  6.35e-04  2.50e-05     0.6
   52    -1018.8666034337572910    -1.15e-07  4.88e-05  5.13e-04  2.78e-05     0.6
   53    -1018.8666035079468202    -7.42e-08  3.81e-05  3.59e-04  3.29e-05     0.6
   54    -1018.8666035574351554    -4.95e-08  3.52e-05  3.36e-04  2.95e-05     0.6
               *** Restarting incremental Fock matrix formation ***
   55    -1018.8666035722196739    -1.48e-08  3.04e-05  3.28e-04  1.90e-05     0.9
   56    -1018.8666035949711386    -2.28e-08  1.62e-05  1.73e-04  1.07e-05     0.5
   57    -1018.8666036046056433    -9.63e-09  5.10e-06  4.09e-05  5.02e-06     0.5
                 **** Energy Check signals convergence ****

               *****************************************************
               *                     SUCCESS                       *
               *           SCF CONVERGED AFTER  57 CYCLES          *
               *****************************************************

Recomputing exchange energy using gridx3       ... done (    1.294 sec)
Old exchange energy                            :    -28.878602065 Eh
New exchange energy                            :    -28.878606153 Eh
Exchange energy change after final integration :     -0.000004088 Eh
Total energy after final integration           :  -1018.866607699 Eh
             **** ENERGY FILE WAS UPDATED (15h_pme3_opt.en.tmp) ****

----------------
TOTAL SCF ENERGY
----------------

Total Energy       :      -1018.86660769911634 Eh          -27724.76990 eV

Components:
Nuclear Repulsion  :        656.91334796957972 Eh           17875.52097 eV
Electronic Energy  :      -1675.77995158048293 Eh          -45600.29076 eV
One Electron Energy:      -2736.97702504066956 Eh          -74476.93119 eV
Two Electron Energy:       1061.19707346018663 Eh           28876.64043 eV

Virial components:
Potential Energy   :      -1970.71568307064354 Eh          -53625.90002 eV
Kinetic Energy     :        951.84907537152731 Eh           25901.13013 eV
Virial Ratio       :          2.07040772960927

DFT components:
N(Alpha)           :       51.999998318425 electrons
N(Beta)            :       51.999998318425 electrons
N(Total)           :      103.999996636849 electrons
E(X)               :      -63.626467238997 Eh       
E(C)               :       -4.417882488207 Eh       
E(XC)              :      -68.044349727204 Eh       

---------------
SCF CONVERGENCE
---------------

  Last Energy change         ...    9.6345e-09  Tolerance :   1.0000e-08
  Last MAX-Density change    ...    4.0880e-05  Tolerance :   1.0000e-07
  Last RMS-Density change    ...    5.1005e-06  Tolerance :   5.0000e-09
  Last DIIS Error            ...    2.4157e-03  Tolerance :   5.0000e-07
  Last Orbital Gradient      ...    5.0225e-06  Tolerance :   1.0000e-05
  Last Orbital Rotation      ...    4.8839e-05  Tolerance :   1.0000e-05


----------------
ORBITAL ENERGIES
----------------

  NO   OCC          E(Eh)            E(eV) 
   0   2.0000     -77.084841     -2097.5852 
   1   2.0000     -77.049333     -2096.6189 
   2   2.0000     -10.301631      -280.3216 
   3   2.0000     -10.301306      -280.3128 
   4   2.0000     -10.295314      -280.1497 
   5   2.0000     -10.281846      -279.7833 
   6   2.0000     -10.280974      -279.7595 
   7   2.0000     -10.278980      -279.7053 
   8   2.0000      -6.678252      -181.7245 
   9   2.0000      -6.644548      -180.8073 
  10   2.0000      -4.836018      -131.5947 
  11   2.0000      -4.835819      -131.5893 
  12   2.0000      -4.833117      -131.5158 
  13   2.0000      -4.802162      -130.6735 
  14   2.0000      -4.802130      -130.6726 
  15   2.0000      -4.798791      -130.5817 
  16   2.0000      -3.176339       -86.4326 
  17   2.0000      -2.026359       -55.1400 
  18   2.0000      -2.025595       -55.1192 
  19   2.0000      -1.988396       -54.1070 
  20   2.0000      -0.904140       -24.6029 
  21   2.0000      -0.883076       -24.0297 
  22   2.0000      -0.820320       -22.3220 
  23   2.0000      -0.815891       -22.2015 
  24   2.0000      -0.801547       -21.8112 
  25   2.0000      -0.799590       -21.7580 
  26   2.0000      -0.659675       -17.9507 
  27   2.0000      -0.637963       -17.3599 
  28   2.0000      -0.562244       -15.2994 
  29   2.0000      -0.547993       -14.9117 
  30   2.0000      -0.544055       -14.8045 
  31   2.0000      -0.543821       -14.7981 
  32   2.0000      -0.529412       -14.4060 
  33   2.0000      -0.527689       -14.3591 
  34   2.0000      -0.515901       -14.0384 
  35   2.0000      -0.511303       -13.9132 
  36   2.0000      -0.500118       -13.6089 
  37   2.0000      -0.497067       -13.5259 
  38   2.0000      -0.494994       -13.4695 
  39   2.0000      -0.484327       -13.1792 
  40   2.0000      -0.448175       -12.1955 
  41   2.0000      -0.438924       -11.9437 
  42   2.0000      -0.437684       -11.9100 
  43   2.0000      -0.437401       -11.9023 
  44   2.0000      -0.435277       -11.8445 
  45   2.0000      -0.417133       -11.3508 
  46   2.0000      -0.416328       -11.3289 
  47   2.0000      -0.368177       -10.0186 
  48   2.0000      -0.367921       -10.0116 
  49   2.0000      -0.350631        -9.5411 
  50   2.0000      -0.317938        -8.6515 
  51   2.0000      -0.209650        -5.7049 
  52   0.0000      -0.122418        -3.3312 
  53   0.0000      -0.055388        -1.5072 
  54   0.0000      -0.054836        -1.4922 
  55   0.0000       0.059855         1.6287 
  56   0.0000       0.112795         3.0693 
  57   0.0000       0.115064         3.1310 
  58   0.0000       0.120915         3.2903 
  59   0.0000       0.136201         3.7062 
  60   0.0000       0.146271         3.9802 
  61   0.0000       0.151193         4.1142 
  62   0.0000       0.151793         4.1305 
*Only the first 10 virtual orbitals were printed.

                    ********************************
                    * MULLIKEN POPULATION ANALYSIS *
                    ********************************

-----------------------
MULLIKEN ATOMIC CHARGES
-----------------------
   0 Ru:    0.144740
   1 P :    0.137381
   2 P :    0.159859
   3 H :   -0.018655
   4 H :   -0.239364
   5 H :   -0.042513
   6 H :   -0.041585
   7 C :   -0.181377
   8 H :    0.077014
   9 H :    0.045505
  10 H :    0.076433
  11 C :   -0.191435
  12 H :    0.052277
  13 H :    0.064182
  14 H :    0.070064
  15 C :   -0.192110
  16 H :    0.070591
  17 H :    0.064053
  18 H :    0.052642
  19 C :   -0.191901
  20 H :    0.061164
  21 H :    0.063298
  22 H :    0.037738
  23 C :   -0.198473
  24 H :    0.057396
  25 H :    0.039817
  26 H :    0.060725
  27 C :   -0.197828
  28 H :    0.040378
  29 H :    0.062383
  30 H :    0.057605
Sum of atomic charges:   -0.0000000

--------------------------------
MULLIKEN REDUCED ORBITAL CHARGES
--------------------------------
  0 Rus       :     2.677569  s :     2.677569
      pz      :     2.129322  p :     6.344477
      px      :     2.140402
      py      :     2.074754
      dz2     :     1.706076  d :     6.829791
      dxz     :     1.120536
      dyz     :     1.108915
      dx2y2   :     1.366224
      dxy     :     1.528041
      f0      :     0.000402  f :     0.003422
      f+1     :     0.000353
      f-1     :     0.000503
      f+2     :     0.000498
      f-2     :     0.000909
      f+3     :     0.000547
      f-3     :     0.000211

  1 P s       :     5.709692  s :     5.709692
      pz      :     2.871350  p :     8.972118
      px      :     2.897934
      py      :     3.202835
      dz2     :     0.053638  d :     0.180809
      dxz     :     0.028083
      dyz     :     0.027431
      dx2y2   :     0.041031
      dxy     :     0.030625

  2 P s       :     5.776653  s :     5.776653
      pz      :     2.763671  p :     8.884651
      px      :     2.944276
      py      :     3.176704
      dz2     :     0.038457  d :     0.178837
      dxz     :     0.034746
      dyz     :     0.040094
      dx2y2   :     0.041715
      dxy     :     0.023825

  3 H s       :     1.008415  s :     1.008415
      pz      :     0.005752  p :     0.010240
      px      :     0.001106
      py      :     0.003382

  4 H s       :     1.239125  s :     1.239125
      pz      :     0.000016  p :     0.000240
      px      :     0.000007
      py      :     0.000217

  5 H s       :     1.032491  s :     1.032491
      pz      :     0.003044  p :     0.010023
      px      :     0.003438
      py      :     0.003541

  6 H s       :     1.031569  s :     1.031569
      pz      :     0.001700  p :     0.010016
      px      :     0.006621
      py      :     0.001695

  7 C s       :     3.095588  s :     3.095588
      pz      :     0.986159  p :     3.065037
      px      :     1.053302
      py      :     1.025576
      dz2     :     0.005095  d :     0.020752
      dxz     :     0.003551
      dyz     :     0.002985
      dx2y2   :     0.004173
      dxy     :     0.004948

  8 H s       :     0.899342  s :     0.899342
      pz      :     0.006430  p :     0.023644
      px      :     0.007361
      py      :     0.009853

  9 H s       :     0.931087  s :     0.931087
      pz      :     0.004365  p :     0.023409
      px      :     0.006427
      py      :     0.012617

 10 H s       :     0.899986  s :     0.899986
      pz      :     0.006359  p :     0.023581
      px      :     0.012944
      py      :     0.004278

 11 C s       :     3.094181  s :     3.094181
      pz      :     1.034132  p :     3.076354
      px      :     1.032925
      py      :     1.009297
      dz2     :     0.006715  d :     0.020900
      dxz     :     0.002608
      dyz     :     0.002189
      dx2y2   :     0.005015
      dxy     :     0.004373

 12 H s       :     0.924398  s :     0.924398
      pz      :     0.005534  p :     0.023325
      px      :     0.007393
      py      :     0.010397

 13 H s       :     0.912302  s :     0.912302
      pz      :     0.014792  p :     0.023516
      px      :     0.004470
      py      :     0.004253

 14 H s       :     0.906443  s :     0.906443
      pz      :     0.005723  p :     0.023493
      px      :     0.013514
      py      :     0.004256

 15 C s       :     3.096350  s :     3.096350
      pz      :     1.033419  p :     3.074926
      px      :     1.011418
      py      :     1.030089
      dz2     :     0.006643  d :     0.020835
      dxz     :     0.002105
      dyz     :     0.002730
      dx2y2   :     0.004144
      dxy     :     0.005213

 16 H s       :     0.906001  s :     0.906001
      pz      :     0.005657  p :     0.023408
      px      :     0.007981
      py      :     0.009770

 17 H s       :     0.912546  s :     0.912546
      pz      :     0.014744  p :     0.023401
      px      :     0.004313
      py      :     0.004344

 18 H s       :     0.924136  s :     0.924136
      pz      :     0.005610  p :     0.023222
      px      :     0.005088
      py      :     0.012524

 19 C s       :     3.092394  s :     3.092394
      pz      :     1.038595  p :     3.078442
      px      :     1.022063
      py      :     1.017784
      dz2     :     0.006195  d :     0.021064
      dxz     :     0.002675
      dyz     :     0.002655
      dx2y2   :     0.003884
      dxy     :     0.005656

 20 H s       :     0.915359  s :     0.915359
      pz      :     0.006513  p :     0.023477
      px      :     0.007469
      py      :     0.009495

[...]
   213. D(C  23,H  26,H   3,H  24)    -37.82 -0.000066   -0.11    -37.94   
   214. D(C  23,H  26,H   3,P   2)     21.52 -0.000019   -0.40     21.12   
   215. D(C  23,H  26,H   3,Ru  0)   -167.21  0.000083    0.21   -167.00   
   216. D(H  29,C  27,P   2,H   3)    -89.53 -0.000084    1.52    -88.01   
   217. D(H  29,C  27,P   2,C  23)    172.85  0.000052    0.15    173.00   
   218. D(H  29,C  27,P   2,C  19)     71.76  0.000037    0.22     71.98   
   219. D(H  28,C  27,P   2,H   3)    149.22 -0.000067    1.43    150.65   
   220. D(H  28,C  27,P   2,C  23)     51.60  0.000069    0.06     51.66   
   221. D(H  28,C  27,P   2,C  19)    -49.49  0.000054    0.13    -49.36   
    ----------------------------------------------------------------------------

Geometry step timings:
Preparation and reading OPT file:      0.000 s ( 2.046 %)
Internal coordinates            :      0.000 s ( 0.539 %)
B/P matrices and projection     :      0.003 s (29.079 %)
Hessian update/contruction      :      0.002 s (24.295 %)
Making the step                 :      0.002 s (22.728 %)
Converting the step to Cartesian:      0.000 s ( 2.310 %)
Storing new data                :      0.001 s ( 5.964 %)
Checking convergence            :      0.000 s ( 0.326 %)
Final printing                  :      0.001 s (12.682 %)
Total time                      :      0.010 s

Time for energy+gradient        :     19.545 s
Time for complete geometry iter :     21.162 s

         *************************************************************
         *                GEOMETRY OPTIMIZATION CYCLE  66            *
         *************************************************************
---------------------------------
CARTESIAN COORDINATES (ANGSTROEM)
---------------------------------
  Ru    -2.617045    1.637853   -0.213143
  P     -3.472023    3.743835   -0.181735
  P     -1.343358   -2.000197    2.377270
  H     -2.212239    0.194641    0.563648
  H     -2.343821    1.909166    1.299567
  H     -2.077923   -0.017519   -0.287122
  H     -4.081859    1.193894    0.065503
  C     -4.658877    4.030573    1.184509
  H     -5.498449    3.329458    1.077980
  H     -5.032548    5.066456    1.187916
  H     -4.152573    3.812941    2.135911
  C     -2.303642    5.149146    0.036296
  H     -2.825374    6.118739    0.086065
  H     -1.583315    5.166049   -0.795700
  H     -1.742987    4.992471    0.969946
  C     -4.440332    4.286348   -1.649471
  H     -5.266986    3.578715   -1.812168
  H     -3.800228    4.275537   -2.545874
  H     -4.851206    5.300627   -1.518488
  C      0.425380   -1.453383    2.368143
  H      0.555251   -0.670902    1.604084
  H      0.681693   -1.011984    3.343598
  H      1.121495   -2.281741    2.154259
  C     -1.350382   -3.004509    0.822603
  H     -2.327891   -3.500170    0.707055
  H     -0.553567   -3.767774    0.811428
  H     -1.209461   -2.342010   -0.046880
  C     -1.236668   -3.380150    3.608601
  H     -0.411522   -4.078791    3.390163
  H     -1.094030   -2.966216    4.619413
  H     -2.185705   -3.940390    3.612672

----------------------------
CARTESIAN COORDINATES (A.U.)
----------------------------
  NO LB      ZA    FRAG     MASS         X           Y           Z
   0 Ru   16.0000*   0   101.070   -4.945499    3.095094   -0.402783
   1 P    15.0000    0    30.974   -6.561172    7.074823   -0.343429
   2 P    15.0000    0    30.974   -2.538578   -3.779825    4.492389
   3 H     1.0000    0     1.008   -4.180526    0.367817    1.065141
   4 H     1.0000    0     1.008   -4.429179    3.607801    2.455825
   5 H     1.0000    0     1.008   -3.926706   -0.033107   -0.542582
   6 H     1.0000    0     1.008   -7.713595    2.256132    0.123783
   7 C     6.0000    0    12.011   -8.804001    7.616679    2.238398
   8 H     1.0000    0     1.008  -10.390564    6.291764    2.037087
   9 H     1.0000    0     1.008   -9.510138    9.574214    2.244836
  10 H     1.0000    0     1.008   -7.847226    7.205413    4.036287
  11 C     6.0000    0    12.011   -4.353252    9.730477    0.068589
  12 H     1.0000    0     1.008   -5.339184   11.562740    0.162640
  13 H     1.0000    0     1.008   -2.992032    9.762418   -1.503656
  14 H     1.0000    0     1.008   -3.293768    9.434403    1.832931
  15 C     6.0000    0    12.011   -8.391011    8.100024   -3.117049
  16 H     1.0000    0     1.008   -9.953160    6.762792   -3.424500
  17 H     1.0000    0     1.008   -7.181390    8.079593   -4.811005
  18 H     1.0000    0     1.008   -9.167450   10.016733   -2.869526
  19 C     6.0000    0    12.011    0.803852   -2.746496    4.475142
  20 H     1.0000    0     1.008    1.049272   -1.267821    3.031279
  21 H     1.0000    0     1.008    1.288214   -1.912373    6.318484
  22 H     1.0000    0     1.008    2.119318   -4.311866    4.070960
  23 C     6.0000    0    12.011   -2.551853   -5.677700    1.554495
  24 H     1.0000    0     1.008   -4.399077   -6.614363    1.336141
  25 H     1.0000    0     1.008   -1.046089   -7.120062    1.533377
  26 H     1.0000    0     1.008   -2.285551   -4.425758   -0.088590
  27 C     6.0000    0    12.011   -2.336964   -6.387559    6.819267
  28 H     1.0000    0     1.008   -0.777664   -7.707797    6.406480
  29 H     1.0000    0     1.008   -2.067416   -5.605336    8.729426
  30 H     1.0000    0     1.008   -4.130383   -7.446258    6.826961
* core charge reduced due to ECP

--------------------------------
INTERNAL COORDINATES (ANGSTROEM)
--------------------------------
 Ru     0   0   0     0.000000000000     0.00000000     0.00000000
 P      1   0   0     2.273132890225     0.00000000     0.00000000
 P      1   2   0     4.644128566777   145.20606638     0.00000000
 H      1   2   3     1.688234621532   151.14376522     7.80966509
 H      1   2   3     1.560946735757    83.76614700   342.69117171
 H      4   1   2     0.887052691226    78.43192063   171.34281720
 H      1   2   3     1.555770608032    84.70818124    75.63575577
 C      2   1   3     1.832338160829   113.50990057   327.89793657
 H      8   2   1     1.098996128977   108.82744889   299.98638872
 H      8   2   1     1.101224582019   111.67232041   178.42703599
 H      8   2   1     1.099487860764   108.41854440    57.24927570
 C      2   1   3     1.840530149863   118.05132733    86.78625270
 H     12   2   1     1.102175522936   112.11963265   182.77425260
 H     12   2   1     1.100624249322   109.73318770    61.12401763
 H     12   2   1     1.100265222971   108.37713579   303.32479936
 C      2   1   3     1.840160915078   117.38953202   209.17668408
 H     16   2   1     1.100259621330   108.88596534    56.45615622
 H     16   2   1     1.101538803339   109.90142766   298.27634723
 H     16   2   1     1.102150497747   111.88153591   177.28799857
 C      3   1   2     1.851356747852    91.59848170   263.67316631
 H     20   3   1     1.101330955660   109.02179114   346.86142034
 H     20   3   1     1.100927892942   109.66239389   104.43152981
 H     20   3   1     1.102950087875   112.46406072   225.92137364
 C      3   1   2     1.850859386782    87.44994635   164.53997292
 H     24   3   1     1.102068237234   109.60174525   266.00864580
 H     24   3   1     1.103455552935   112.40173550   144.42273245
 H     24   3   1     1.102163402425   109.63299418    23.80440074
 C      3   1   2     1.852519972424   165.94780041    47.26249113
 H     28   3  24     1.103031658234   112.53599074    51.64053071
 H     28   3  24     1.101557622418   109.72256447   172.97910606
 H     28   3  24     1.102068814933   109.36202935   290.54794109

---------------------------
INTERNAL COORDINATES (A.U.)
---------------------------
 Ru     0   0   0     0.000000000000     0.00000000     0.00000000
 P      1   0   0     4.295598628534     0.00000000     0.00000000
 P      1   2   0     8.776131121928   145.20606638     0.00000000
 H      1   2   3     3.190301084500   151.14376522     7.80966509
 H      1   2   3     2.949761840219    83.76614700   342.69117171
 H      4   1   2     1.676286652775    78.43192063   171.34281720
 H      1   2   3     2.939980376385    84.70818124    75.63575577
 C      2   1   3     3.462617308699   113.50990057   327.89793657
 H      8   2   1     2.076801706007   108.82744889   299.98638872
 H      8   2   1     2.081012871957   111.67232041   178.42703599
 H      8   2   1     2.077730944415   108.41854440    57.24927570
 C      2   1   3     3.478097924466   118.05132733    86.78625270
 H     12   2   1     2.082809889860   112.11963265   182.77425260
 H     12   2   1     2.079878407572   109.73318770    61.12401763
 H     12   2   1     2.079199946093   108.37713579   303.32479936
 C      2   1   3     3.477400171844   117.38953202   209.17668408
 H     16   2   1     2.079189360526   108.88596534    56.45615622
 H     16   2   1     2.081606664198   109.90142766   298.27634723
 H     16   2   1     2.082762599107   111.88153591   177.28799857
 C      3   1   2     3.498557229627    91.59848170   263.67316631
 H     20   3   1     2.081213889007   109.02179114   346.86142034
 H     20   3   1     2.080452210855   109.66239389   104.43152981
 H     20   3   1     2.084273605468   112.46406072   225.92137364
 C      3   1   2     3.497617353416    87.44994635   164.53997292
 H     24   3   1     2.082607149266   109.60174525   266.00864580
 H     24   3   1     2.085228796001   112.40173550   144.42273245
 H     24   3   1     2.082786985413   109.63299418    23.80440074
 C      3   1   2     3.500755405501   165.94780041    47.26249113
 H     28   3  24     2.084427751108   112.53599074    51.64053071
 H     28   3  24     2.081642227104   109.72256447   172.97910606
 H     28   3  24     2.082608240959   109.36202935   290.54794109



           ************************************************************
           *        Program running with 32 parallel MPI-processes    *
           *              working on a common directory               *
           ************************************************************
------------------------------------------------------------------------------
                   ___                                                        
                  /   \      - P O W E R E D   B Y -                         
                 /     \                                                     
                 |  |  |   _    _      __       _____    __    __             
                 |  |  |  | |  | |    /  \     |  _  \  |  |  /  |          
                  \  \/   | |  | |   /    \    | | | |  |  | /  /          
                 / \  \   | |__| |  /  /\  \   | |_| |  |  |/  /          
                |  |  |   |  __  | /  /__\  \  |    /   |      \           
                |  |  |   | |  | | |   __   |  |    \   |  |\   \          
                \     /   | |  | | |  |  |  |  | |\  \  |  | \   \       
                 \___/    |_|  |_| |__|  |__|  |_| \__\ |__|  \__/        
                                                                              
                      - O R C A' S   B I G   F R I E N D -                    
                                      &                                       
                       - I N T E G R A L  F E E D E R -                       
                                                                              
 v1 FN, 2020, v2 2021, v3 2022-2024                                           
------------------------------------------------------------------------------


----------------------
SHARK INTEGRAL PACKAGE
----------------------

Number of atoms                             ...     31
Number of basis functions                   ...    261
Number of shells                            ...    129
Maximum angular momentum                    ...      3
Integral batch strategy                     ... SHARK/LIBINT Hybrid
RI-J (if used) integral strategy            ... SPLIT-RIJ (Revised 2003 algorithm where possible)
Printlevel                                  ...      1
Contraction scheme used                     ... SEGMENTED contraction
Prescreening option                         ... SCHWARTZ
   Thresh                                   ... 2.500e-11
   Tcut                                     ... 2.500e-12
   Tpresel                                  ... 2.500e-12 
Coulomb Range Separation                    ... NOT USED
Exchange Range Separation                   ... Long Range
   Mu parameter                             ... 3.000e-01
   Scaling (regular/separated)              ... 1.670e-01 8.330e-01
Robust (split-)RI terms used:
  metric    (central integrals)             ... YES
  density   (r.h.s.  integrals)             ... YES
  potential (l.h.s.  integrals)             ... YES
Multipole approximations                    ... NOT USED
Finite Nucleus Model                        ... NOT USED
CABS basis                                  ... NOT available
Auxiliary Coulomb fitting basis             ... AVAILABLE
   # of basis functions in Aux-J            ...    727
   # of shells in Aux-J                     ...    257
   Maximum angular momentum in Aux-J        ...      4
Auxiliary J/K fitting basis                 ... NOT available
Auxiliary Correlation fitting basis         ... NOT available
Auxiliary 'external' fitting basis          ... NOT available

Checking pre-screening integrals            ... done (  0.0 sec) Dimension = 129
   => SHARK Basis and OBASIS are compatible. Storing Pre-screening
Shell pair information
Shell pair cut-off parameter TPreSel        ...   2.5e-12
Total number of shell pairs                 ...      8385
Shell pairs after pre-screening             ...      6112
Total number of primitive shell pairs       ...     28408
Primitive shell pairs kept                  ...     14213
          la=0 lb=0:   2199 shell pairs
          la=1 lb=0:   2309 shell pairs
          la=1 lb=1:    628 shell pairs
          la=2 lb=0:    549 shell pairs
          la=2 lb=1:    287 shell pairs
          la=2 lb=2:     38 shell pairs
          la=3 lb=0:     60 shell pairs
          la=3 lb=1:     34 shell pairs
          la=3 lb=2:      7 shell pairs
          la=3 lb=3:      1 shell pairs

Checking whether 4 symmetric matrices of dimension 261 fit in memory
:Max Core in MB      =   4096.00
 MB in use           =     11.48
 MB left             =   4084.52
 MB needed           =      1.04
 Data fit in memory  = YES
Calculating RI/J V-Matrix + Cholesky decomp.... done (  0.1 sec)
Calculating Nuclear repulsion               ... done (  0.0 sec) ENN=    729.432859447985 Eh

Diagonalization of the overlap matrix:
Smallest eigenvalue                        ... 2.200e-03
Time for diagonalization                   ...    0.005 sec
Threshold for overlap eigenvalues          ... 1.000e-07
Number of eigenvalues below threshold      ... 0
Time for construction of square roots      ...    0.003 sec
Total time needed                          ...    0.012 sec

-------------------
DFT GRID GENERATION
-------------------

General Integration Accuracy     IntAcc      ... 4.959
Radial Grid Type                 RadialGrid  ... OptM3 with GC (2021)
Angular Grid (max. ang.)         AngularGrid ... 6 (Lebedev-590)
Angular grid pruning method      GridPruning ... 4 (adaptive)
Weight generation scheme         WeightScheme... mBecke (2022)
Basis function cutoff            BFCut       ... 1.0000e-11
Integration weight cutoff        WCut        ... 1.0000e-14
Partially contracted basis set               ... off
Rotationally invariant grid construction     ... off
Angular grids for H and He will be reduced by one unit

Total number of grid points                  ...   330683
Total number of batches                      ...     5186
Average number of points per batch           ...       63
Average number of grid points per atom       ...    10667

--------------------
COSX GRID GENERATION
--------------------

GRIDX 1
-------
General Integration Accuracy     IntAcc      ... 4.020
Radial Grid Type                 RadialGrid  ... OptM3 with GC (2021)
Angular Grid (max. ang.)         AngularGrid ... 2 (Lebedev-110)
Angular grid pruning method      GridPruning ... 4 (adaptive)
Weight generation scheme         WeightScheme... mBecke (2022)
Basis function cutoff            BFCut       ... 1.0000e-11
Integration weight cutoff        WCut        ... 1.0000e-14
Partially contracted basis set               ... on
Rotationally invariant grid construction     ... off
Angular grids for H and He will be reduced by one unit

Total number of grid points                  ...    36236
Total number of batches                      ...      301
Average number of points per batch           ...      120
Average number of grid points per atom       ...     1169
UseSFitting                                  ... on

GRIDX 2
-------
General Integration Accuracy     IntAcc      ... 4.338
Radial Grid Type                 RadialGrid  ... OptM3 with GC (2021)
Angular Grid (max. ang.)         AngularGrid ... 3 (Lebedev-194)
Angular grid pruning method      GridPruning ... 4 (adaptive)
Weight generation scheme         WeightScheme... mBecke (2022)
Basis function cutoff            BFCut       ... 1.0000e-11
Integration weight cutoff        WCut        ... 1.0000e-14
Partially contracted basis set               ... on
Rotationally invariant grid construction     ... off
Angular grids for H and He will be reduced by one unit

Total number of grid points                  ...    73873
Total number of batches                      ...      590
Average number of points per batch           ...      125
Average number of grid points per atom       ...     2383
UseSFitting                                  ... on

GRIDX 3
-------
General Integration Accuracy     IntAcc      ... 4.871
Radial Grid Type                 RadialGrid  ... OptM3 with GC (2021)
Angular Grid (max. ang.)         AngularGrid ... 4 (Lebedev-302)
Angular grid pruning method      GridPruning ... 4 (adaptive)
Weight generation scheme         WeightScheme... mBecke (2022)
Basis function cutoff            BFCut       ... 1.0000e-11
Integration weight cutoff        WCut        ... 1.0000e-14
Partially contracted basis set               ... on
Rotationally invariant grid construction     ... off
Angular grids for H and He will be reduced by one unit

Total number of grid points                  ...   147528
Total number of batches                      ...     1171
Average number of points per batch           ...      125
Average number of grid points per atom       ...     4759
UseSFitting                                  ... on
Grids setup in   3.5 sec
Initializing property integral containers    ... done (  0.0 sec)

SHARK setup successfully completed in   3.8 seconds

Maximum memory used throughout the entire STARTUP-calculation: 64.5 MB


           ************************************************************
           *        Program running with 32 parallel MPI-processes    *
           *              working on a common directory               *
           ************************************************************
Occupation numbers will be reassigned to an Aufbau configuration
             **** ENERGY FILE WAS UPDATED (15h_pme3_opt.en.tmp) ****
Finished Guess after   0.4 sec
Maximum memory used throughout the entire GUESS-calculation: 15.8 MB


           ************************************************************
           *        Program running with 32 parallel MPI-processes    *
           *              working on a common directory               *
           ************************************************************
----------------------------------------D-I-I-S--------------------------------------------
Iteration    Energy (Eh)           Delta-E    RMSDP     MaxDP     DIISErr   Damp  Time(sec)
-------------------------------------------------------------------------------------------
               ***  Starting incremental Fock matrix formation  ***
