
                                 *****************
                                 * O   R   C   A *
                                 *****************

                                            #,                                       
                                            ###                                      
                                            ####                                     
                                            #####                                    
                                            ######                                   
                                           ########,                                 
                                     ,,################,,,,,                         
                               ,,#################################,,                 
                          ,,##########################################,,             
                       ,#########################################, ''#####,          
                    ,#############################################,,   '####,        
                  ,##################################################,,,,####,       
                ,###########''''           ''''###############################       
              ,#####''   ,,,,##########,,,,          '''####'''          '####       
            ,##' ,,,,###########################,,,                        '##       
           ' ,,###''''                  '''############,,,                           
         ,,##''                                '''############,,,,        ,,,,,,###''
      ,#''                                            '''#######################'''  
     '                                                          ''''####''''         
             ,#######,   #######,   ,#######,      ##                                
            ,#'     '#,  ##    ##  ,#'     '#,    #''#        ,####,    ,#,          
            ##       ##  ##   ,#'  ##            #'  '#       #'       ,# #          
            ##       ##  #######   ##           ,######,      #####,      #          
            '#,     ,#'  ##    ##  '#,     ,#' ,#      #,     #,   #      #          
             '#######'   ##     ##  '#######'  #'      '#     '####' #    #          



                #########################################################
                #                        -***-                          #
                #          Department of theory and spectroscopy        #
                #                                                       #
                #                      Frank Neese                      #
                #                                                       #
                #     Directorship, Architecture, Infrastructure        #
                #                    SHARK, DRIVERS                     #
                #        Core code/Algorithms in most modules           #
                #                                                       #
                #        Max Planck Institute fuer Kohlenforschung      #
                #                Kaiser Wilhelm Platz 1                 #
                #                 D-45470 Muelheim/Ruhr                 #
                #                      Germany                          #
                #                                                       #
                #                  All rights reserved                  #
                #                        -***-                          #
                #########################################################


                         Program Version 6.1.1  -  RELEASE   -
                                (GIT: $487d211c$)
                          ($2025-11-21 10:33:24 +0100$)


 With contributions from (in alphabetic order):
[Max-Planck-Institut fuer Kohlenforschung]                               
  Daniel Aravena         : Magnetic Suceptibility                        
  Michael Atanasov       : Ab Initio Ligand Field Theory (pilot matlab implementation)
  Alexander A. Auer      : GIAO ZORA, VPT2 properties, NMR spectrum      
  Ute Becker             : All parallelization in ORCA, NUMFREQ, NUMCALC 
  Giovanni Bistoni       : ED, misc. LED, open-shell LED, HFLD           
  Dmytro Bykov           : pre 5.0 version of the SCF Hessian            
  Marcos Casanova-Páez   : Triplet and SCS-CIS(D). UHF-(DLPNO)-IP/EA/STEOM-CCSD. UHF-CVS-IP/STEOM-CCSD   
  Vijay G. Chilkuri      : MRCI spin determinant printing, contributions to CSF-ICE 
  Pauline Colinet        : FMM embedding                                 
  Dipayan Datta          : RHF DLPNO-CCSD density                        
  Achintya Kumar Dutta   : EOM-CC, STEOM-CC                              
  Nicolas Foglia         : Exact transition moments, OPA infrastructure, MCD improvements    
  Dmitry Ganyushin       : Spin-Orbit,Spin-Spin,Magnetic field MRCI      
  Miquel Garcia-Rates    : C-PCM and meta-GGA Hessian, CCSD/C-PCM, Gaussian charge scheme 
  Tiago L. C. Gouveia    : GS-ROHF, GS-ROCIS                             
  Yang Guo               : DLPNO-NEVPT2, F12-NEVPT2, CIM, IAO-localization        
  Andreas Hansen         : Spin unrestricted coupled pair/coupled cluster methods 
  Ingolf Harden          : AUTO-CI MPn and infrastructure                
  Benjamin Helmich-Paris : MC-RPA, TRAH-(SCF,CASSCF), AVAS, COSX integrals, SCF dyn. polar., MC-PDFT, srDFT 
  Lee Huntington         : MR-EOM, pCC                                   
  Robert Izsak           : Overlap fitted RIJCOSX, COSX-SCS-MP3, EOM     
  Riya Kayal             : Wick's Theorem for AUTO-CI, AUTO-CI UHF-CCSDT 
  Emily Kempfer          : AUTO-CI RHF CISDT and CCSDT, approximate NEVPT4
  Christian Kollmar      : KDIIS, OOCD, Brueckner-CCSD(T), CCSD density, CASPT2, CASPT2-K, improved NEVPT2 
  Axel Koslowski         : Symmetry handling                             
  Simone Kossmann        : meta-GGA functionals, TD-DFT gradient, OOMP2, (MP2 Hessian; deprecated post 5.0) 
  Lucas Lang             : DCDCAS, Hyperfine gauge corrections, ICE-SOC+SSC
  Marvin Lechner         : AUTO-CI (C++ implementation), FIC-MRCC        
  Spencer Leger          : CASSCF response                               
  Dagmar Lenk            : GEPOL surface, SMD, ORCA-2-JSON               
  Dimitrios Liakos       : Extrapolation schemes; Compound Job, Property file
  Dimitrios Manganas     : Further ROCIS development; embedding schemes. LFT, Crystal Embedding 
  Dimitrios Pantazis     : SARC Basis sets                               
  Anastasios Papadopoulos: AUTO-CI, single reference methods and gradients 
  Taras Petrenko         : pre 6.0 DFT Hessian and TD-DFT gradient,  ECA, NRVS 
  Petra Pikulova         : Analytic Raman intensities                    
  Peter Pinski           : DLPNO-MP2, DLPNO-MP2 Gradient                 
  Shashank Vittal Rao    : ES-AILFT, MagRelax                            
  Christoph Reimann      : Effective Core Potentials                     
  Marius Retegan         : Local ZFS, SOC                                
  Christoph Riplinger    : Optimizer, TS searches, QM/MM, DLPNO-CCSD(T), (RO)-DLPNO pert. Triples 
  Michael Roemelt        : Original ROCIS implementation, recursive CI coupling coefficients
  Masaaki Saitow         : Open-shell DLPNO-CCSD energy and density      
  Barbara Sandhoefer     : DKH picture change effects                    
  Yorick L. A. Schmerwitz: GMF and freeze-and-release deltaSCF, NEB S-IDPP initial path                    
  Kantharuban Sivalingam : CASSCF convergence/infrastructure, NEVPT2, NEVPT3, NEVPT4(SD), FIC-MRCI and CEPA variants
  Bernardo de Souza      : ESD, SOC TD-DFT                               
  Georgi L. Stoychev     : AutoAux, RI-MP2 NMR, DLPNO-MP2 response, X2C  
  Van Anh Tran           : RI-MP2 g-tensors                              
  Willem Van den Heuvel  : Paramagnetic NMR                              
  Zikuan Wang            : NOTCH, Electric field optimization            
  Frank Wennmohs         : Technical directorship and infrastructure     
  Hang Xu                : AUTO-CI-Response properties                   
                                                                         
[FACCTs GmbH]                                                            
  Markus Bursch, Nicolas Foglia, Miquel Garcia-Rates, Ingolf Harden, Hagen Neugebauer, Anastasios Papadopoulos, 
  Christoph Riplinger, Bernardo de Souza, Georgi L. Stoychev                                                    
                                                                 
  APM, various basis sets, CI-OPT, improved COSX, DLPNO-Multilevel,           
  DOCKER, DRACO, updates on ESD, Fragmentator, GOAT, IRC, LR-CPCM, L-BFGS, MBIS, meta-GGA TD-DFT gradient, ML-optimized integration grids, 
  MM, NACMEs, nearIR, NEB, NEB-TS, NL-DFT gradient (VV10), 2- and 3-layer-ONIOM, interface openCOSMO-RS, QMMM,   
  Crystal-QMMM, RESP, rigid body optimization, SF, symmetry and pop. for TD-DFT, various functionals, SOLVATOR                                   
                                                                         
[Other institutions]                                                     
  V. Asgeirsson          : NEB                                           
  Christoph Bannwarth    : sTDA-DFT, sTD-DFT, PBEh-3c, B97-3c, D3        
  Giovanni Bistoni       : ETS/NOCV, ADLD/ADEX, COVALED                  
  Martin Brehm           : Molecular dynamics                            
  Ronald Cardenas        : ETS/NOCV                                      
  Martina Colucci        : COVALED                                       
  Sebastian Ehlert       : rSCAN, r2SCAN, r2SCAN-3c, D4, dhf basis sets  
  Marvin Friede          : D4 for Fr, Ra, Ac-Lr                          
  Lars Goerigk           : TD-DFT with DH, B97 family of functionals     
  Stefan Grimme          : VdW corrections, initial TS optimization, DFT functionals, gCP, sTDA/sTD-DF 
  Waldemar Hujo          : DFT-NL                                        
  H. Jonsson             : NEB                                           
  Holger Kruse           : gCP                                           
  Marcel Mueller         : wB97X-3c, vDZP basis set                      
  Hagen Neugebauer       : wr2SCAN, Native XTB                           
  Gianluca Regni         : ADLD/ADEX                                     
  Tobias Risthaus        : pre 6.0 range-separated hybrid DFT and stability analysis
  Lukas Wittmann         : regularized MP2, r2SCAN double-hybrids, wr2SCAN        
                                                                         
We gratefully acknowledge several colleagues who have allowed us to      
interface, adapt or use parts of their codes:                            
  Ed Valeev, F. Pavosevic, A. Kumar             : LibInt (2-el integral package), F12 methods 
  Garnet Chan, S. Sharma, J. Yang, R. Olivares  : DMRG                   
  Ulf Ekstrom                                   : XCFun DFT Library      
  Mihaly Kallay                                 : mrcc  (arbitrary order and MRCC methods)
  Frank Weinhold                                : gennbo (NPA and NBO analysis)           
  Simon Mueller                                 : openCOSMO-RS                            
  Christopher J. Cramer and Donald G. Truhlar   : smd solvation model                     
  S Lehtola, MJT Oliveira, MAL Marques          : LibXC Library                           
  Liviu Ungur et al                             : ANISO software                          


 Your calculation uses the libint2 library for the computation of 2-el integrals
 For citations please refer to: http://libint.valeyev.net

 Your ORCA version has been built with support for libXC version: 7.0.0
 For citations please refer to: https://libxc.gitlab.io

 This ORCA versions uses:
   CBLAS   interface :  Fast vector & matrix operations
   LAPACKE interface :  Fast linear algebra routines
   SCALAPACK package :  Parallel linear algebra routines
   Shared memory     :  Shared parallel matrices
   BLAS/LAPACK       :  OpenBLAS 0.3.29  USE64BITINT DYNAMIC_ARCH NO_AFFINITY Cooperlake SINGLE_THREADED
        Core in use  :  Cooperlake
   Copyright (c) 2011-2014, The OpenBLAS Project


  ***********************************
  * Starting time: Mon Jul 20 19:14:39 2026
  * Host name:     c1-33
  * Process ID:    3921546
  * Working dir.:  /cluster/projects/nn14654k/ylvaos/TPhP_bsse/orca/geomopt_wb97x-d4_def2svp_pme3
  ***********************************

Your calculation utilizes the atom-pairwise dispersion correction
based on EEQ partial charges (D4)


Warning: RI is on but no J-basis has been assigned. Assigning Def2/J (nothing to worry about!)
================================================================================

cite the ECPs for Ru [Def2-ECP] as follows:
Ce-Yb(ecp-28): M. Dolg, H. Stoll, H.Preuss, J. Chem. Phys., 1989, 90, 1730-1734.
Y-Cd(ecp-28), Hf-Hg(ecp-46): D. Andrae,U. Haeussermann, M. Dolg, H. Stoll, H. Preuss, Theor. Chim. Acta, 1990, 77, 123-141.
In-Sb(ecp-28), Tl-Bi(ecp-46): B. Metz, H. Stoll, M. Dolg, J. Chem. Phys., 2000, 113, 2563-2569.
Te-Xe(ecp-28), Po-Rn(ecp-46): K. A. Peterson, D. Figgen, E. Goll, H. Stoll, M. Dolg, J. Chem. Phys., 2003, 119, 11113-11123.
Rb(ecp-28), Cs(ecp-46): T. Leininger, A. Nicklass, W. Kuechle, H. Stoll, M. Dolg, A. Bergner, Chem. Phys. Lett., 1996, 255, 274-280.
Sr(ecp-28), Ba(ecp-46): M. Kaupp, P. V. Schleyer, H. Stoll and H. Preuss, J. Chem. Phys., 1991, 94, 1360-1366.
La(ecp-46): M. Dolg, H. Stoll, A. Savin, H. Preuss, Theor. Chim. Acta, 1989, 75, 173-194.
Lu(ecp-28): X. Cao, M. Dolg, J. Chem. Phys., 2001, 115, 7348-7355.

ECP parameters for Ru [Def2-ECP] have been obtained from:
TURBOMOLE (7.0.2)

----- Orbital basis set information -----
Your calculation utilizes the basis: def2-SVP
   F. Weigend and R. Ahlrichs, Phys. Chem. Chem. Phys. 7, 3297 (2005).

----- AuxJ basis set information -----
Your calculation utilizes the auxiliary basis: def2/J
   H-Rn: F. Weigend, Phys. Chem. Chem. Phys. 8, 1057 (2006).
   Fr-Lr: K. Eichkorn, F. Weigend, O. Treutler, R. Ahlrichs; Theor. Chem. Acc. 97, 119 (1997).

================================================================================
                                        WARNINGS
                       Please study these warnings very carefully!
================================================================================


WARNING: Geometry Optimization
  ===> : Switching off AutoStart
         For restart on a previous wavefunction, please use MOREAD

================================================================================
                                       INPUT FILE
================================================================================
NAME = 1b_pme3_opt.inp
|  1> ! wB97X-D4 def2-SVP TightSCF defgrid3 Opt
|  2> 
|  3> %pal nprocs 32 end
|  4> 
|  5> %loc
|  6>   LocMet NEWBOYS
|  7>   Occ true
|  8> end
|  9> 
| 10> *xyz 0 1
| 11> Ru      -0.2317951159      0.5789267513      0.7854293664                 
| 12> P        2.0545222055      2.5767536919     -1.1875418834                 
| 13> P       -3.2655224682      1.6676051198      1.0987525098                 
| 14> P        3.7805742549     -1.5340079964     -1.1175105424                 
| 15> C       -3.4472724321      1.7471017724      2.9534140672                 
| 16> H        0.8010474487     -1.3692645703      2.3325426490                 
| 17> H       -0.5428893796      0.7636217034      2.5771908308                 
| 18> H        0.6203585100      2.9051961633      1.7908822500                 
| 19> H       -1.1862573120     -0.1706548775     -1.6203951443                 
| 20> H       -2.9641976209      0.8585736024      3.4091771975                 
| 21> H       -4.5182266958      1.7654686130      3.2436461026                 
| 22> H       -2.9513289258      2.6646251916      3.3314138310                 
| 23> C        3.4266939515      3.0696333405     -0.0232046551                 
| 24> H        4.0225940297      2.1719986795      0.2411462572                 
| 25> H        4.0903801309      3.8228728261     -0.4943263724                 
| 26> H        2.9882144369      3.5000633641      0.9005309136                 
| 27> C        1.4980562086      4.2947020041     -1.6559541145                 
| 28> H        0.9879289178      4.7651236257     -0.7906977579                 
| 29> H        0.7868134338      4.2316242968     -2.5060678754                 
| 30> H        2.3636187834      4.9222873575     -1.9531495254                 
| 31> C       -4.4396932694      3.0527619028      0.6747593088                 
| 32> H       -5.4056063760      2.9261899434      1.2065599467                 
| 33> H       -4.6242212877      3.0556536261     -0.4191703740                 
| 34> H       -3.9860034916      4.0212037856      0.9696375843                 
| 35> C       -4.4329459168      0.2455220693      0.7955262310                 
| 36> H       -3.9739822286     -0.6918880347      1.1716894236                 
| 37> H       -4.6175458842      0.1477783481     -0.2940063151                 
| 38> H       -5.3992795203      0.4118735174      1.3154936336                 
| 39> C        3.1129414234      2.2408641997     -2.6859052905                 
| 40> H        3.7030521038      1.3171851852     -2.5203316302                 
| 41> H        3.8062990274      3.0859915341     -2.8753985677                 
| 42> H        2.4593824781      2.1009927504     -3.5723383079                 
| 43> C        3.6051743385     -3.1660164759     -0.2316809489                 
| 44> H        3.2581032542     -2.9849959307      0.8063539092                 
| 45> H        2.8576644431     -3.7922239042     -0.7607873816                 
| 46> H        4.5751308940     -3.7047675231     -0.2024491962                 
| 47> C        4.6607925272     -2.1685429323     -2.6346950051                 
| 48> H        5.5191408322     -2.8128268820     -2.3515026249                 
| 49> H        5.0321001812     -1.3092435225     -3.2301274756                 
| 50> H        3.9517504379     -2.7586703620     -3.2509465277                 
| 51> C        5.2822362458     -0.9124952529     -0.2027603196                 
| 52> H        5.6742065459     -0.0084029310     -0.7125063474                 
| 53> H        6.0756468603     -1.6883408297     -0.1761039587                 
| 54> H        4.9963181499     -0.6487941570      0.8361324635                 
| 55> 
| 56> **                         ****END OF INPUT****
================================================================================

                       *****************************
                       * Geometry Optimization Run *
                       *****************************

Geometry optimization settings:
Update method            Update   .... BFGS
Choice of coordinates    CoordSys .... (2022) Redundant Internals
Initial Hessian          InHess   .... Almloef's Model
Max. no of cycles        MaxIter  .... 132

Convergence Tolerances:
Energy Change            TolE     ....  5.0000e-06 Eh
Max. Gradient            TolMAXG  ....  3.0000e-04 Eh/bohr
RMS Gradient             TolRMSG  ....  1.0000e-04 Eh/bohr
Max. Displacement        TolMAXD  ....  4.0000e-03 bohr
RMS Displacement         TolRMSD  ....  2.0000e-03 bohr
Strict Convergence                .... False

------------------------------------------------------------------------------
                        ORCA OPTIMIZATION COORDINATE SETUP
------------------------------------------------------------------------------

The optimization will be done in redundant internal coordinates (2022)
Making redundant internal coordinates   ...  (2022 redundants) done
Evaluating the initial hessian          ...  (Almloef) done
Evaluating the coordinates              ...  done
Calculating the B-matrix                .... done
Calculating the G-matrix                .... done
The number of degrees of freedom        ....  430

    -----------------------------------------------------------------
                    Redundant Internal Coordinates


    -----------------------------------------------------------------
         Definition                    Initial Value    Approx d2E/dq
    -----------------------------------------------------------------
      1. B(P   2,Ru  0)                  3.2383         0.023902   
      2. B(C   4,P   2)                  1.8652         0.366452   
      3. B(H   5,Ru  0)                  2.6937         0.010070   
      4. B(H   6,H   5)                  2.5328         0.010000   
      5. B(H   6,Ru  0)                  1.8279         0.242236   
      6. B(H   7,P   1)                  3.3220         0.010000   
      7. B(H   7,Ru  0)                  2.6737         0.010836   
      8. B(H   7,H   6)                  2.5608         0.010000   
      9. B(H   8,Ru  0)                  2.6946         0.010035   
     10. B(H   9,C   4)                  1.1093         0.335443   
     11. B(H  10,C   4)                  1.1097         0.334915   
     12. B(H  11,C   4)                  1.1094         0.335371   
     13. B(C  12,H   7)                  3.3457         0.010000   
     14. B(C  12,P   1)                  1.8659         0.365607   
     15. B(H  13,C  12)                  1.1094         0.335353   
     16. B(H  14,C  12)                  1.1090         0.335865   
     17. B(H  15,H   7)                  2.5987         0.010000   
     18. B(H  15,C  12)                  1.1094         0.335300   
     19. B(C  16,P   1)                  1.8656         0.365987   
     20. B(H  17,C  16)                  1.1091         0.335648   
     21. B(H  17,H   7)                  3.2030         0.010000   
     22. B(H  18,C  16)                  1.1102         0.334348   
     23. B(H  19,C  16)                  1.1097         0.334986   
     24. B(C  20,P   2)                  1.8647         0.367180   
     25. B(H  21,C  20)                  1.1099         0.334746   
     26. B(H  22,C  20)                  1.1094         0.335345   
     27. B(H  23,C  20)                  1.1094         0.335386   
     28. B(C  24,P   2)                  1.8647         0.367166   
     29. B(H  25,C  24)                  1.1095         0.335265   
     30. B(H  26,C  24)                  1.1094         0.335361   
     31. B(H  27,C  24)                  1.1099         0.334735   
     32. B(C  28,P   1)                  1.8650         0.366797   
     33. B(H  29,P   1)                  2.4659         0.010000   
     34. B(H  29,C  28)                  1.1085         0.336409   
     35. B(H  29,P   3)                  3.1786         0.010000   
     36. B(H  30,C  28)                  1.1095         0.335260   
     37. B(H  31,C  28)                  1.1102         0.334388   
     38. B(C  32,P   3)                  1.8652         0.366528   
     39. B(H  33,C  32)                  1.1094         0.335343   
     40. B(H  33,H   5)                  3.3132         0.010000   
     41. B(H  34,C  32)                  1.1094         0.335278   
     42. B(H  35,C  32)                  1.1099         0.334689   
     43. B(C  36,P   3)                  1.8653         0.366399   
     44. B(C  36,H  29)                  3.6167         0.010000   
     45. B(H  37,C  36)                  1.1100         0.334612   
     46. B(H  38,H  29)                  3.0279         0.010000   
     47. B(H  38,C  36)                  1.1094         0.335309   
     48. B(H  39,C  36)                  1.1094         0.335336   
     49. B(C  40,H  29)                  3.5828         0.010000   
     50. B(C  40,H  13)                  3.3612         0.010000   
     51. B(C  40,P   3)                  1.8649         0.366844   
     52. B(H  41,H  29)                  2.9851         0.010000   
     53. B(H  41,H  13)                  2.8968         0.010000   
     54. B(H  41,C  40)                  1.1094         0.335276   
     55. B(H  42,C  40)                  1.1100         0.334565   
     56. B(H  43,H  13)                  3.0429         0.010000   
     57. B(H  43,C  40)                  1.1093         0.335431   
     58. A(H   6,Ru  0,H   7)           66.2790         0.211477   
     59. A(H   5,Ru  0,H   6)           64.8710         0.209461   
     60. A(P   2,Ru  0,H   6)           73.2471         0.260408   
     61. A(H   6,Ru  0,H   8)          147.4576         0.209367   
     62. A(P   2,Ru  0,H   7)           88.2634         0.173843   
     63. A(H   7,Ru  0,H   8)          133.6839         0.148579   
     64. A(H   5,Ru  0,H   7)          106.9224         0.148626   
     65. A(P   2,Ru  0,H   5)          123.1465         0.172447   
     66. A(P   2,Ru  0,H   8)           81.2614         0.172381   
     67. A(H   5,Ru  0,H   8)          116.5787         0.147598   
     68. A(H   7,P   1,C  16)           90.3034         0.147408   
     69. A(H   7,P   1,C  28)          169.4639         0.147437   
     70. A(C  12,P   1,C  16)           97.6305         0.408890   
     71. A(H   7,P   1,C  12)           74.4482         0.147394   
     72. A(C  16,P   1,C  28)           97.6665         0.409125   
     73. A(C  12,P   1,C  28)           97.5600         0.409050   
     74. A(C   4,P   2,C  20)           97.6472         0.409293   
     75. A(C   4,P   2,C  24)           97.6540         0.409290   
     76. A(Ru  0,P   2,C  24)          108.3238         0.284058   
     77. A(Ru  0,P   2,C  20)          144.8476         0.284060   
     78. A(C  20,P   2,C  24)           97.7765         0.409434   
     79. A(Ru  0,P   2,C   4)          101.6432         0.283972   
     80. A(H  29,P   3,C  32)          172.8303         0.154829   
     81. A(C  32,P   3,C  40)           97.7220         0.409242   
     82. A(C  32,P   3,C  36)           97.6442         0.409154   
     83. A(H  29,P   3,C  36)           87.5744         0.154823   
     84. A(H  29,P   3,C  40)           86.3981         0.154841   
     85. A(C  36,P   3,C  40)           97.6059         0.409216   
     86. A(H   9,C   4,H  11)          109.1348         0.284452   
     87. A(P   2,C   4,H   9)          109.3874         0.339154   
     88. A(P   2,C   4,H  10)          110.7806         0.339064   
     89. A(P   2,C   4,H  11)          109.2986         0.339142   
     90. A(H  10,C   4,H  11)          109.1854         0.284383   
     91. A(H   9,C   4,H  10)          109.0298         0.284392   
     92. A(Ru  0,H   5,H   6)           40.7974         0.107029   
     93. A(Ru  0,H   5,H  33)          111.8695         0.098423   
     94. A(H   6,H   5,H  33)          148.0666         0.091897   
     95. A(Ru  0,H   6,H   7)           72.9150         0.125182   
     96. A(H   5,H   6,H   7)          115.6929         0.094415   
     97. A(Ru  0,H   6,H   5)           74.3316         0.126034   
     98. A(Ru  0,H   7,H  17)          103.8105         0.099500   
     99. A(P   1,H   7,C  12)           32.4986         0.096110   
    100. A(C  12,H   7,H  17)           55.8177         0.091937   
    101. A(C  12,H   7,H  15)           15.9914         0.093853   
    102. A(H   6,H   7,C  12)          126.0589         0.094009   
    103. A(P   1,H   7,H  15)           47.3195         0.096278   
    104. A(P   1,H   7,H   6)          112.8750         0.096511   
    105. A(Ru  0,H   7,C  12)           96.0962         0.105955   
    106. A(H  15,H   7,H  17)           59.0939         0.092006   
    107. A(H   6,H   7,H  17)          141.7426         0.092102   
    108. A(Ru  0,H   7,H  15)          111.1448         0.106354   
    109. A(H   6,H   7,H  15)          135.2779         0.094127   
    110. A(Ru  0,H   7,H   6)           40.8060         0.106909   
    111. A(P   1,H   7,H  17)           44.3759         0.093403   
    112. A(Ru  0,H   7,P   1)           73.4061         0.114424   
    113. A(P   1,C  12,H  13)          109.2676         0.339008   
    114. A(P   1,C  12,H  15)          109.3541         0.338999   
    115. A(H   7,C  12,H  14)          139.9722         0.119452   
    116. A(P   1,C  12,H   7)           73.0531         0.127942   
    117. A(H  13,C  12,H  14)          109.2292         0.284505   
    118. A(H   7,C  12,H  15)           40.1892         0.119441   
    119. A(H  13,C  12,H  15)          109.1363         0.284431   
    120. A(P   1,C  12,H  14)          110.7592         0.339094   
    121. A(H  14,C  12,H  15)          109.0708         0.284498   
    122. A(H   7,C  12,H  13)          106.3548         0.119442   
    123. A(C  12,H  13,C  40)          155.8313         0.119050   
    124. A(H  41,H  13,H  43)           35.3295         0.091680   
    125. A(C  12,H  13,H  43)          165.5950         0.110537   
    126. A(C  40,H  13,H  43)           19.1268         0.092312   
    127. A(C  12,H  13,H  41)          146.8076         0.113319   
    128. A(C  40,H  13,H  41)           18.5818         0.092739   
    129. A(H   7,H  15,C  12)          123.8194         0.120157   
    130. A(H  18,C  16,H  19)          109.0725         0.284257   
    131. A(H  17,C  16,H  19)          109.1360         0.284428   
    132. A(P   1,C  16,H  19)          110.8169         0.339005   
    133. A(P   1,C  16,H  18)          109.3314         0.338897   
    134. A(H  17,C  16,H  18)          109.0749         0.284344   
    135. A(P   1,C  16,H  17)          109.3831         0.339116   
    136. A(H   7,H  17,C  16)          115.8020         0.107857   
    137. A(H  22,C  20,H  23)          109.1387         0.284441   
    138. A(H  21,C  20,H  23)          109.1542         0.284362   
    139. A(P   2,C  20,H  23)          109.3000         0.339256   
    140. A(H  21,C  20,H  22)          109.1484         0.284357   
    141. A(P   2,C  20,H  22)          109.3224         0.339249   
    142. A(P   2,C  20,H  21)          110.7533         0.339148   
    143. A(H  25,C  24,H  27)          109.1461         0.284345   
    144. A(H  26,C  24,H  27)          109.1739         0.284357   
    145. A(P   2,C  24,H  27)          110.7690         0.339144   
    146. A(P   2,C  24,H  26)          109.3340         0.339250   
    147. A(P   2,C  24,H  25)          109.2835         0.339234   
    148. A(H  25,C  24,H  26)          109.1099         0.284427   
    149. A(H  30,C  28,H  31)          109.1177         0.284298   
    150. A(H  29,C  28,H  31)          109.1274         0.284450   
    151. A(P   1,C  28,H  31)          109.2745         0.339029   
    152. A(H  29,C  28,H  30)          109.1203         0.284565   
    153. A(P   1,C  28,H  30)          110.7753         0.339176   
    154. A(P   1,C  28,H  29)          109.4013         0.339370   
    155. A(P   3,H  29,H  38)           46.7395         0.094739   
    156. A(P   3,H  29,H  41)           47.0219         0.094947   
    157. A(P   3,H  29,C  28)          145.7242         0.140467   
    158. A(H  38,H  29,H  41)           57.7877         0.091521   
    159. A(C  28,H  29,H  38)          157.1332         0.110822   
    160. A(C  28,H  29,H  41)          144.2913         0.111613   
    161. A(C  36,H  29,C  40)           45.8886         0.092108   
    162. A(P   3,H  29,C  36)           31.0159         0.095394   
    163. A(C  36,H  29,H  38)           16.3351         0.091711   
    164. A(C  36,H  29,H  41)           54.2891         0.091810   
    165. A(C  28,H  29,C  36)          159.9372         0.113317   
    166. A(P   3,H  29,C  40)           31.2988         0.095577   
    167. A(H  38,H  29,C  40)           54.4339         0.091789   
    168. A(C  40,H  29,H  41)           16.4318         0.091890   
    169. A(C  28,H  29,C  40)          148.1912         0.114012   
    170. A(H  34,C  32,H  35)          109.1106         0.284340   
    171. A(H  33,C  32,H  35)          109.1449         0.284349   
    172. A(P   3,C  32,H  35)          110.7960         0.339038   
    173. A(H  33,C  32,H  34)          109.1201         0.284427   
    174. A(P   3,C  32,H  34)          109.3133         0.339138   
    175. A(P   3,C  32,H  33)          109.3313         0.339149   
    176. A(H   5,H  33,C  32)          137.9536         0.106202   
    177. A(H  38,C  36,H  39)          109.1345         0.284430   
    178. A(H  37,C  36,H  39)          109.0987         0.284338   
    179. A(P   3,C  36,H  39)          109.3401         0.339127   
    180. A(H  37,C  36,H  38)          109.1294         0.284334   
    181. A(P   3,C  36,H  38)          109.3293         0.339123   
    182. A(P   3,C  36,H  37)          110.7845         0.339005   
    183. A(H  29,C  36,H  39)          111.1610         0.113299   
    184. A(H  29,C  36,H  38)           50.1411         0.113298   
    185. A(P   3,C  36,H  29)           61.4097         0.120099   
    186. A(H  29,C  36,H  37)          139.1244         0.113287   
    187. A(H  29,H  38,C  36)          113.5238         0.110806   
    188. A(H  13,C  40,H  41)           56.3078         0.119049   
    189. A(P   3,C  40,H  13)           93.9477         0.127471   
    190. A(P   3,C  40,H  42)          110.7557         0.339066   
    191. A(P   3,C  40,H  41)          109.3108         0.339186   
    192. A(H  13,C  40,H  29)           49.3947         0.092843   
    193. A(H  29,C  40,H  43)          110.1362         0.113996   
    194. A(H  29,C  40,H  42)          139.9566         0.113981   
    195. A(H  29,C  40,H  41)           49.5622         0.113993   
    196. A(H  42,C  40,H  43)          109.1406         0.284344   
    197. A(P   3,C  40,H  29)           62.3032         0.120998   
    198. A(H  41,C  40,H  43)          109.1255         0.284438   
    199. A(P   3,C  40,H  43)          109.3321         0.339212   
    200. A(H  13,C  40,H  43)           63.9971         0.119052   
    201. A(H  13,C  40,H  42)          154.9712         0.119034   
    202. A(H  41,C  40,H  42)          109.1522         0.284324   
    203. A(H  13,H  41,H  29)           59.2455         0.091812   
    204. A(H  29,H  41,C  40)          114.0060         0.111596   
    205. A(H  13,H  41,C  40)          105.1104         0.113317   
    206. A(H  13,H  43,C  40)           96.8761         0.110539   
    207. D(C   4,P   2,Ru  0,H   6)     -1.8301         0.010000   
    208. D(C   4,P   2,Ru  0,H   5)     41.5968         0.010000   
    209. D(C  20,P   2,Ru  0,H   7)     54.3602         0.010000   
    210. D(C   4,P   2,Ru  0,H   7)    -67.5510         0.010000   
    211. D(C   4,P   2,Ru  0,H   8)    157.7185         0.010000   
    212. D(C  20,P   2,Ru  0,H   5)    163.5080         0.010000   
    213. D(C  20,P   2,Ru  0,H   6)    120.0811         0.010000   
    214. D(H   9,C   4,P   2,Ru  0)    -40.3138         0.010000   
    215. D(H  10,C   4,P   2,Ru  0)   -160.5292         0.010000   
    216. D(H   9,C   4,P   2,C  20)    169.2324         0.010000   
    217. D(H  10,C   4,P   2,C  20)     49.0169         0.010000   
    218. D(H   9,C   4,P   2,C  24)     70.2695         0.010000   
    219. D(H  10,C   4,P   2,C  24)    -49.9460         0.010000   
    220. D(H   6,H   5,Ru  0,H   7)     52.6157         0.010000   
    221. D(H   6,H   5,Ru  0,H   8)   -143.7537         0.010000   
    222. D(H  33,H   5,Ru  0,H   7)   -106.5391         0.010000   
    223. D(H   6,H   5,Ru  0,P   2)    -46.6409         0.010000   
    224. D(H  33,H   5,Ru  0,H   6)   -159.1548         0.010000   
    225. D(H  33,H   5,Ru  0,P   2)    154.2043         0.010000   
    226. D(H   7,H   6,H   5,Ru  0)    -61.7347         0.010000   
    227. D(Ru  0,H   6,H   5,H  33)     38.6340         0.010000   
    228. D(H   5,H   6,Ru  0,H   8)    100.5828         0.010000   
    229. D(H   7,H   6,H   5,H  33)    -23.1007         0.010000   
    230. D(H   5,H   6,Ru  0,P   2)    140.5254         0.010000   
    231. D(H   5,H   6,Ru  0,H   7)   -123.8678         0.010000   
    232. D(H   7,H   6,Ru  0,H   5)    123.8678         0.010000   
    233. D(H   7,H   6,Ru  0,H   8)   -135.5494         0.010000   
    234. D(H   7,H   6,Ru  0,P   2)    -95.6069         0.010000   
    235. D(H   6,H   7,Ru  0,P   2)     72.4423         0.010000   
    236. D(H   6,H   7,Ru  0,H   8)    148.6064         0.010000   
    237. D(H   6,H   7,Ru  0,H   5)    -51.7912         0.010000   
    238. D(H  17,H   7,H   6,H   5)     91.0079         0.010000   
    239. D(P   1,H   7,H   6,Ru  0)    -15.6373         0.010000   
    240. D(P   1,H   7,H   6,H   5)     46.8846         0.010000   
    241. D(H  15,H   7,P   1,C  12)      9.5088         0.010000   
    242. D(Ru  0,H   7,H   6,H   5)     62.5219         0.010000   
    243. D(H  15,H   7,H   6,Ru  0)    -67.3495         0.010000   
    244. D(H  15,H   7,Ru  0,P   2)   -151.6866         0.010000   
    245. D(Ru  0,H   7,P   1,C  28)    -90.9226         0.010000   
    246. D(Ru  0,H   7,P   1,C  16)    129.7835         0.010000   
    247. D(H   6,H   7,P   1,C  28)    -80.3312         0.010000   
    248. D(H   6,H   7,P   1,C  12)   -121.7880         0.010000   
    249. D(H   6,H   7,P   1,C  16)    140.3748         0.010000   
    250. D(H  17,H   7,H   6,Ru  0)     28.4860         0.010000   
    251. D(H  15,H   7,H   6,H   5)     -4.8276         0.010000   
    252. D(H  15,H   7,P   1,C  28)     50.9656         0.010000   
    253. D(H  17,H   7,Ru  0,H   6)   -162.2951         0.010000   
    254. D(H  15,H   7,P   1,C  16)    -88.3284         0.010000   
    255. D(H  15,H   7,Ru  0,H   5)     84.0799         0.010000   
    256. D(H  17,H   7,Ru  0,P   2)    -89.8529         0.010000   
    257. D(H  15,H   7,Ru  0,H   6)    135.8711         0.010000   
    258. D(Ru  0,H   7,P   1,C  12)   -132.3793         0.010000   
    259. D(H  15,H   7,Ru  0,H   8)    -75.5225         0.010000   
    260. D(P   1,C  12,H   7,H   6)     75.6403         0.010000   
    261. D(H  15,C  12,P   1,C  16)     70.6327         0.010000   
    262. D(P   1,C  12,H   7,Ru  0)     45.3946         0.010000   
    263. D(H  14,C  12,P   1,C  28)     49.2347         0.010000   
    264. D(H  14,C  12,P   1,C  16)    -49.5986         0.010000   
    265. D(H  13,C  12,P   1,H   7)    101.8481         0.010000   
    266. D(H  15,C  12,P   1,C  28)    169.4660         0.010000   
    267. D(H  14,C  12,P   1,H   7)   -137.7799         0.010000   
    268. D(H  13,C  12,P   1,C  28)    -71.1374         0.010000   
    269. D(H  13,C  12,P   1,C  16)   -169.9707         0.010000   
    270. D(H  13,C  12,H   7,P   1)   -105.6693         0.010000   
    271. D(H  13,C  12,H   7,H  17)   -162.8466         0.010000   
    272. D(H  13,C  12,H   7,H  15)    100.4876         0.010000   
    273. D(H  13,C  12,H   7,Ru  0)    -60.2747         0.010000   
    274. D(H  13,C  12,H   7,H   6)    -30.0290         0.010000   
    275. D(P   1,C  12,H   7,H  17)    -57.1773         0.010000   
    276. D(P   1,C  12,H   7,H  15)   -153.8431         0.010000   
    277. D(H  43,H  13,C  12,H  15)     91.4185         0.128410   
    278. D(H  43,H  13,C  12,H  14)   -149.4172         0.128410   
    279. D(H  43,H  13,C  12,P   1)    -28.1127         0.128410   
    280. D(H  41,H  13,C  12,H   7)    136.9888         0.128410   
    281. D(H  41,H  13,C  12,H  15)    179.1832         0.128410   
    282. D(H  41,H  13,C  12,H  14)    -61.6525         0.128410   
    283. D(H  41,H  13,C  12,P   1)     59.6520         0.128410   
    284. D(H   7,H  15,C  12,H  14)    147.8076         0.111429   
    285. D(H   7,H  15,C  12,H  13)    -92.9297         0.111429   
    286. D(H   7,H  15,C  12,P   1)     26.5479         0.111429   
    287. D(C  12,H  15,H   7,P   1)    -18.7948         0.010000   
    288. D(C  12,H  15,H   7,H  17)    -73.2630         0.010000   
    289. D(C  12,H  15,H   7,Ru  0)     20.5654         0.010000   
    290. D(C  12,H  15,H   7,H   6)     60.8536         0.010000   
    291. D(H  18,C  16,P   1,H   7)   -116.0117         0.010000   
    292. D(H  18,C  16,P   1,C  28)     70.8994         0.010000   
    293. D(H  18,C  16,P   1,C  12)    169.6406         0.010000   
    294. D(H  17,C  16,P   1,H   7)      3.3659         0.010000   
    295. D(H  17,C  16,P   1,C  28)   -169.7230         0.010000   
    296. D(H  19,C  16,P   1,C  12)     49.3855         0.010000   
    297. D(H  17,C  16,P   1,C  12)    -70.9818         0.010000   
    298. D(H   7,H  17,C  16,P   1)     -3.8782         0.102439   
    299. D(C  16,H  17,H   7,C  12)     43.1469         0.010000   
    300. D(C  16,H  17,H   7,Ru  0)    -44.8616         0.010000   
    301. D(C  16,H  17,H   7,H  15)     61.7441         0.010000   
    302. D(C  16,H  17,H   7,H   6)    -63.5827         0.010000   
    303. D(H   7,H  17,C  16,H  18)    115.6575         0.102439   
    304. D(C  16,H  17,H   7,P   1)      2.9367         0.010000   
    305. D(H   7,H  17,C  16,H  19)   -125.2674         0.102439   
    306. D(H  22,C  20,P   2,C  24)    -70.8144         0.010000   
    307. D(H  22,C  20,P   2,C   4)   -169.6714         0.010000   
    308. D(H  22,C  20,P   2,Ru  0)     67.3487         0.010000   
    309. D(H  21,C  20,P   2,C  24)     49.4892         0.010000   
    310. D(H  21,C  20,P   2,C   4)    -49.3678         0.010000   
    311. D(H  21,C  20,P   2,Ru  0)   -172.3477         0.010000   
    312. D(H  26,C  24,P   2,C  20)     70.8017         0.010000   
    313. D(H  26,C  24,P   2,C   4)    169.6529         0.010000   
    314. D(H  25,C  24,P   2,C  20)   -169.8363         0.010000   
    315. D(H  25,C  24,P   2,C   4)    -70.9851         0.010000   
    316. D(H  26,C  24,P   2,Ru  0)    -85.3356         0.010000   
    317. D(H  25,C  24,P   2,Ru  0)     34.0265         0.010000   
    318. D(H  31,C  28,P   1,C  12)   -169.8331         0.010000   
    319. D(H  30,C  28,P   1,H   7)    -89.6312         0.010000   
    320. D(H  30,C  28,P   1,C  16)     49.2174         0.010000   
    321. D(H  30,C  28,P   1,C  12)    -49.5847         0.010000   
    322. D(H  29,C  28,P   1,H   7)     30.7022         0.010000   
    323. D(H  29,C  28,P   1,C  16)    169.5508         0.010000   
    324. D(H  29,C  28,P   1,C  12)     70.7487         0.010000   
    325. D(H  38,H  29,P   3,C  36)     -7.1854         0.010000   
    326. D(H  38,H  29,P   3,C  32)   -144.0723         0.010000   
    327. D(H  41,H  29,P   3,C  40)      7.6979         0.010000   
    328. D(H  41,H  29,P   3,C  36)    -90.0842         0.010000   
    329. D(H  41,H  29,P   3,C  32)    133.0289         0.010000   
    330. D(C  28,H  29,P   3,C  40)   -119.4243         0.010000   
    331. D(C  28,H  29,P   3,C  36)    142.7936         0.010000   
    332. D(H  38,H  29,P   3,C  40)     90.5967         0.010000   
    333. D(C  28,H  29,P   3,C  32)      5.9067         0.010000   
    334. D(P   3,H  29,C  28,H  31)    -88.1662         0.144888   
    335. D(P   3,H  29,C  28,H  30)    152.6824         0.144888   
    336. D(P   3,H  29,C  28,P   1)     31.3428         0.144888   
    337. D(H  38,H  29,C  28,H  31)     22.1767         0.144888   
    338. D(H  38,H  29,C  28,H  30)    -96.9748         0.144888   
    339. D(H  38,H  29,C  28,P   1)    141.6857         0.144888   
    340. D(H  41,H  29,C  28,H  31)   -176.2942         0.144888   
    341. D(H  41,H  29,C  28,H  30)     64.5543         0.144888   
    342. D(H  41,H  29,C  28,P   1)    -56.7852         0.144888   
    343. D(H  34,C  32,P   3,H  29)     65.5469         0.010000   
    344. D(H  34,C  32,P   3,C  40)   -169.7048         0.010000   
    345. D(H  34,C  32,P   3,C  36)    -70.9060         0.010000   
    346. D(H  33,C  32,P   3,H  29)    -53.8437         0.010000   
    347. D(H  33,C  32,P   3,C  40)     70.9045         0.010000   
    348. D(H  33,C  32,P   3,C  36)    169.7034         0.010000   
    349. D(H   5,H  33,C  32,H  35)    173.9174         0.102215   
    350. D(H   5,H  33,C  32,H  34)    -66.9295         0.102215   
    351. D(H   5,H  33,C  32,P   3)     52.5805         0.102215   
    352. D(C  32,H  33,H   5,Ru  0)    -22.0538         0.010000   
    353. D(C  32,H  33,H   5,H   6)    -48.1303         0.010000   
    354. D(H  38,C  36,H  29,C  28)    101.9699         0.010000   
    355. D(H  37,C  36,H  29,C  40)    -43.5051         0.010000   
    356. D(H  37,C  36,H  29,P   3)    -89.3032         0.010000   
    357. D(H  37,C  36,H  29,H  38)     71.7999         0.010000   
    358. D(H  37,C  36,H  29,H  41)    -25.0091         0.010000   
    359. D(H  37,C  36,H  29,C  28)    173.7698         0.010000   
    360. D(P   3,C  36,H  29,C  40)     45.7980         0.010000   
    361. D(P   3,C  36,H  29,H  38)    161.1031         0.010000   
    362. D(P   3,C  36,H  29,H  41)     64.2941         0.010000   
    363. D(P   3,C  36,H  29,C  28)    -96.9271         0.010000   
    364. D(H  39,C  36,P   3,C  32)     70.9151         0.010000   
    365. D(H  38,C  36,P   3,H  29)     15.2754         0.010000   
    366. D(H  38,C  36,P   3,C  40)    -70.7626         0.010000   
    367. D(H  38,C  36,P   3,C  32)   -169.6619         0.010000   
    368. D(H  37,C  36,P   3,H  29)    135.5794         0.010000   
    369. D(H  37,C  36,P   3,C  40)     49.5414         0.010000   
    370. D(H  37,C  36,P   3,C  32)    -49.3579         0.010000   
    371. D(H  29,H  38,C  36,H  39)    102.0106         0.111437   
    372. D(H  29,H  38,C  36,H  37)   -138.8514         0.111437   
    373. D(H  29,H  38,C  36,P   3)    -17.5395         0.111437   
    374. D(C  36,H  38,H  29,C  40)     52.9354         0.010000   
    375. D(C  36,H  38,H  29,P   3)     13.2473         0.010000   
    376. D(C  36,H  38,H  29,H  41)     72.3489         0.010000   
    377. D(C  36,H  38,H  29,C  28)   -120.2755         0.010000   
    378. D(H  42,C  40,H  29,H  38)     26.3191         0.010000   
    379. D(H  42,C  40,H  29,H  41)    -69.8753         0.010000   
    380. D(H  42,C  40,H  29,C  28)   -158.6807         0.010000   
    381. D(H  41,C  40,H  29,C  36)    114.4092         0.010000   
    382. D(H  41,C  40,H  29,P   3)    159.7302         0.010000   
    383. D(H  41,C  40,H  29,H  38)     96.1944         0.010000   
    384. D(H  41,C  40,H  29,C  28)    -88.8054         0.010000   
    385. D(P   3,C  40,H  29,H  38)    -63.5358         0.010000   
    386. D(P   3,C  40,H  29,H  41)   -159.7302         0.010000   
    387. D(P   3,C  40,H  29,C  28)    111.4644         0.010000   
    388. D(H  42,C  40,H  13,H  43)    -79.4900         0.010000   
    389. D(H  42,C  40,H  13,H  41)     60.2711         0.010000   
    390. D(H  42,C  40,H  13,C  12)    137.9025         0.010000   
    391. D(H  41,C  40,H  13,H  43)   -139.7610         0.010000   
    392. D(H  41,C  40,H  13,C  12)     77.6314         0.010000   
    393. D(P   3,C  40,H  13,H  43)    109.6055         0.010000   
    394. D(P   3,C  40,H  13,H  41)   -110.6335         0.010000   
    395. D(P   3,C  40,H  13,C  12)    -33.0020         0.010000   
    396. D(P   3,C  40,H  29,C  36)    -45.3210         0.010000   
    397. D(H  43,C  40,P   3,C  36)   -169.7622         0.010000   
    398. D(H  43,C  40,P   3,C  32)    -70.9303         0.010000   
    399. D(H  42,C  40,P   3,H  29)   -136.5266         0.010000   
    400. D(H  42,C  40,P   3,C  36)    -49.4607         0.010000   
    401. D(H  42,C  40,P   3,C  32)     49.3712         0.010000   
    402. D(H  41,C  40,P   3,H  29)    -16.2244         0.010000   
    403. D(H  41,C  40,P   3,C  36)     70.8415         0.010000   
    404. D(H  41,C  40,P   3,C  32)    169.6734         0.010000   
    405. D(H  29,H  41,C  40,H  43)   -100.5563         0.128338   
    406. D(H  29,H  41,C  40,H  42)    140.2468         0.128338   
    407. D(H  29,H  41,C  40,P   3)     18.9675         0.128338   
    408. D(H  13,H  41,C  40,H  43)    -37.9159         0.128338   
    409. D(H  13,H  41,C  40,H  42)   -157.1129         0.128338   
    410. D(H  13,H  41,C  40,P   3)     81.6079         0.128338   
    411. D(H  13,H  41,H  29,C  40)    -93.8449         0.010000   
    412. D(H  13,H  41,H  29,P   3)   -108.0858         0.010000   
    413. D(H  13,H  41,H  29,H  38)   -166.7493         0.010000   
    414. D(H  13,H  41,H  29,C  28)     21.6176         0.010000   
    415. D(C  40,H  41,H  29,C  36)    -53.6310         0.010000   
    416. D(C  40,H  41,H  29,P   3)    -14.2409         0.010000   
    417. D(C  40,H  41,H  29,H  38)    -72.9044         0.010000   
    418. D(C  40,H  41,H  29,C  28)    115.4625         0.010000   
    419. D(H  29,H  41,H  13,C  40)    109.2502         0.010000   
    420. D(H  13,H  41,C  40,H  29)     62.6403         0.128338   
    421. D(H  29,H  41,H  13,H  43)    130.7205         0.010000   
    422. D(H  29,H  41,H  13,C  12)    -23.8202         0.010000   
    423. D(C  40,H  41,H  13,H  43)     21.4703         0.010000   
    424. D(C  40,H  41,H  13,C  12)   -133.0704         0.010000   
    425. D(H  13,H  43,C  40,H  29)    -18.1673         0.120237   
    426. D(H  13,H  43,C  40,H  42)    153.8758         0.120237   
    427. D(H  13,H  43,C  40,H  41)     34.6716         0.120237   
    428. D(H  13,H  43,C  40,P   3)    -84.8391         0.120237   
    429. D(C  40,H  43,H  13,H  41)    -20.8525         0.010000   
    430. D(C  40,H  43,H  13,C  12)     88.0671         0.010000   
    -----------------------------------------------------------------

Number of atoms                         .... 44
Number of degrees of freedom            .... 430


         *************************************************************
         *                GEOMETRY OPTIMIZATION CYCLE   1            *
         *************************************************************
---------------------------------
CARTESIAN COORDINATES (ANGSTROEM)
---------------------------------
  Ru    -0.231795    0.578927    0.785429
  P      2.054522    2.576754   -1.187542
  P     -3.265522    1.667605    1.098753
  P      3.780574   -1.534008   -1.117511
  C     -3.447272    1.747102    2.953414
  H      0.801047   -1.369265    2.332543
  H     -0.542889    0.763622    2.577191
  H      0.620359    2.905196    1.790882
  H     -1.186257   -0.170655   -1.620395
  H     -2.964198    0.858574    3.409177
  H     -4.518227    1.765469    3.243646
  H     -2.951329    2.664625    3.331414
  C      3.426694    3.069633   -0.023205
  H      4.022594    2.171999    0.241146
  H      4.090380    3.822873   -0.494326
  H      2.988214    3.500063    0.900531
  C      1.498056    4.294702   -1.655954
  H      0.987929    4.765124   -0.790698
  H      0.786813    4.231624   -2.506068
  H      2.363619    4.922287   -1.953150
  C     -4.439693    3.052762    0.674759
  H     -5.405606    2.926190    1.206560
  H     -4.624221    3.055654   -0.419170
  H     -3.986003    4.021204    0.969638
  C     -4.432946    0.245522    0.795526
  H     -3.973982   -0.691888    1.171689
  H     -4.617546    0.147778   -0.294006
  H     -5.399280    0.411874    1.315494
  C      3.112941    2.240864   -2.685905
  H      3.703052    1.317185   -2.520332
  H      3.806299    3.085992   -2.875399
  H      2.459382    2.100993   -3.572338
  C      3.605174   -3.166016   -0.231681
  H      3.258103   -2.984996    0.806354
  H      2.857664   -3.792224   -0.760787
  H      4.575131   -3.704768   -0.202449
  C      4.660793   -2.168543   -2.634695
  H      5.519141   -2.812827   -2.351503
  H      5.032100   -1.309244   -3.230127
  H      3.951750   -2.758670   -3.250947
  C      5.282236   -0.912495   -0.202760
  H      5.674207   -0.008403   -0.712506
  H      6.075647   -1.688341   -0.176104
  H      4.996318   -0.648794    0.836132

----------------------------
CARTESIAN COORDINATES (A.U.)
----------------------------
  NO LB      ZA    FRAG     MASS         X           Y           Z
   0 Ru   16.0000*   0   101.070   -0.438029    1.094013    1.484246
   1 P    15.0000    0    30.974    3.882484    4.869359   -2.244129
   2 P    15.0000    0    30.974   -6.170943    3.151317    2.076341
   3 P    15.0000    0    30.974    7.144250   -2.898855   -2.111789
   4 C     6.0000    0    12.011   -6.514401    3.301544    5.581144
   5 H     1.0000    0     1.008    1.513760   -2.587535    4.407867
   6 H     1.0000    0     1.008   -1.025912    1.443036    4.870185
   7 H     1.0000    0     1.008    1.172308    5.490025    3.384277
   8 H     1.0000    0     1.008   -2.241701   -0.322491   -3.062103
   9 H     1.0000    0     1.008   -5.601522    1.622469    6.442411
  10 H     1.0000    0     1.008   -8.538211    3.336252    6.129603
  11 H     1.0000    0     1.008   -5.577203    5.035412    6.295460
  12 C     6.0000    0    12.011    6.475513    5.800766   -0.043850
  13 H     1.0000    0     1.008    7.601601    4.104483    0.455700
  14 H     1.0000    0     1.008    7.729698    7.224183   -0.934141
  15 H     1.0000    0     1.008    5.646907    6.614161    1.701757
  16 C     6.0000    0    12.011    2.830916    8.115811   -3.129300
  17 H     1.0000    0     1.008    1.866915    9.004779   -1.494202
  18 H     1.0000    0     1.008    1.486862    7.996611   -4.735782
  19 H     1.0000    0     1.008    4.466592    9.301775   -3.690918
  20 C     6.0000    0    12.011   -8.389804    5.768884    1.275110
  21 H     1.0000    0     1.008  -10.215116    5.529698    2.280068
  22 H     1.0000    0     1.008   -8.738512    5.774349   -0.792117
  23 H     1.0000    0     1.008   -7.532455    7.598974    1.832349
  24 C     6.0000    0    12.011   -8.377054    0.463969    1.503327
  25 H     1.0000    0     1.008   -7.509738   -1.307479    2.214172
  26 H     1.0000    0     1.008   -8.725897    0.279261   -0.555591
  27 H     1.0000    0     1.008  -10.203160    0.778328    2.485923
  28 C     6.0000    0    12.011    5.882607    4.234620   -5.075625
  29 H     1.0000    0     1.008    6.997754    2.489119   -4.762737
  30 H     1.0000    0     1.008    7.192863    5.831679   -5.433716
  31 H     1.0000    0     1.008    4.647559    3.970301   -6.750741
  32 C     6.0000    0    12.011    6.812792   -5.982904   -0.437814
  33 H     1.0000    0     1.008    6.156923   -5.640825    1.523788
  34 H     1.0000    0     1.008    5.400203   -7.166265   -1.437680
  35 H     1.0000    0     1.008    8.645744   -7.000996   -0.382574
  36 C     6.0000    0    12.011    8.807621   -4.097952   -4.978852
  37 H     1.0000    0     1.008   10.429665   -5.315472   -4.443696
  38 H     1.0000    0     1.008    9.509291   -2.474112   -6.104056
  39 H     1.0000    0     1.008    7.467726   -5.213131   -6.143399
  40 C     6.0000    0    12.011    9.981980   -1.724366   -0.383161
  41 H     1.0000    0     1.008   10.722696   -0.015879   -1.346442
  42 H     1.0000    0     1.008   11.481309   -3.190502   -0.332788
  43 H     1.0000    0     1.008    9.441673   -1.226043    1.580061
* core charge reduced due to ECP

--------------------------------
INTERNAL COORDINATES (ANGSTROEM)
--------------------------------
 Ru     0   0   0     0.000000000000     0.00000000     0.00000000
 P      1   0   0     3.620935643070     0.00000000     0.00000000
 P      1   2   0     3.238347360973   117.30657282     0.00000000
 P      2   1   3     4.458982139901    74.16936567   201.35117401
 C      3   1   2     1.865240536673   101.64323180   235.95552105
 H      1   2   3     2.693654153377   118.02754549   193.60485092
 H      1   2   3     1.827922594517   125.86036261   271.55186195
 H      7   1   2     2.560813933927    72.91504255    16.32795813
 H      1   2   3     2.694598723058    83.72238751    76.77321173
 H      5   3   1     1.109307717922   109.38735820   319.68619794
 H      5   3   1     1.109736459770   110.78055547   199.47076375
 H      5   3   1     1.109366038625   109.29859679    79.11955955
 C      2   1   3     1.865868920833   105.66895914   119.08291807
 H     13   2   1     1.109381040338   109.26755374    68.96594086
 H     13   2   1     1.108965617098   110.75917265   189.33796762
 H     13   2   1     1.109424035625   109.35405083   309.56931814
 C      2   1   3     1.865585920654   117.16469072    11.68851496
 H     17   2   1     1.109141522766   109.38310447    41.04382396
 H     17   2   1     1.110197499698   109.33138766   281.66625294
 H     17   2   1     1.109678808916   110.81688159   161.41113481
 C      3   1   2     1.864700141678   144.84759419   357.86672809
 H     21   3   1     1.109874095958   110.75327472   187.65229534
 H     21   3   1     1.109387715144   109.32244088    67.34872208
 H     21   3   1     1.109354448408   109.30004896   307.94864208
 C      3   1   2     1.864710134851   108.32375955   133.74561535
 H     25   3   1     1.109452170053   109.28348273    34.02646678
 H     25   3   1     1.109374667103   109.33399511   274.66443447
 H     25   3   1     1.109882668260   110.76903902   154.31191259
 C      2   1   3     1.864984153157   134.16585162   236.65994178
 H     29   2   1     1.108525224763   109.40132540   310.17016475
 H     29   2   1     1.109456029088   110.77527512   189.83681415
 H     29   2   1     1.110165218176   109.27450443    69.58845256
 C      4   2   1     1.865183872049   141.05148019   346.78651231
 H     33   4   2     1.109388634326   109.33128457   330.11064434
 H     33   4   2     1.109441482956   109.31330053    89.50130891
 H     33   4   2     1.109920224963   110.79603326   209.77893053
 C      4   2   1     1.865279465825   118.91490951   144.47243603
 H     37   4   2     1.109982677676   110.78449182   144.57691924
 H     37   4   2     1.109416367523   109.32934150    24.27293601
 H     37   4   2     1.109394883164   109.34013940   264.84984170
 C      4   2   1     1.864949006102    90.69671560   243.55953019
 H     41   4   2     1.109443398978   109.31082504   311.53633076
 H     41   4   2     1.110021316830   110.75565136   191.23408653
 H     41   4   2     1.109317646267   109.33209361    70.93256988

---------------------------
INTERNAL COORDINATES (A.U.)
---------------------------
 Ru     0   0   0     0.000000000000     0.00000000     0.00000000
 P      1   0   0     6.842576713957     0.00000000     0.00000000
 P      1   2   0     6.119589638746   117.30657282     0.00000000
 P      2   1   3     8.426255080459    74.16936567   201.35117401
 C      3   1   2     3.524793788201   101.64323180   235.95552105
 H      1   2   3     5.090268649382   118.02754549   193.60485092
 H      1   2   3     3.454273097645   125.86036261   271.55186195
 H      7   1   2     4.839237015051    72.91504255    16.32795813
 H      1   2   3     5.092053627393    83.72238751    76.77321173
 H      5   3   1     2.096287785117   109.38735820   319.68619794
 H      5   3   1     2.097097989793   110.78055547   199.47076375
 H      5   3   1     2.096397995274   109.29859679    79.11955955
 C      2   1   3     3.525981262169   105.66895914   119.08291807
 H     13   2   1     2.096426344403   109.26755374    68.96594086
 H     13   2   1     2.095641308250   110.75917265   189.33796762
 H     13   2   1     2.096507593720   109.35405083   309.56931814
 C      2   1   3     3.525446469335   117.16469072    11.68851496
 H     17   2   1     2.095973721789   109.38310447    41.04382396
 H     17   2   1     2.097969228993   109.33138766   281.66625294
 H     17   2   1     2.096989045467   110.81688159   161.41113481
 C      3   1   2     3.523772589657   144.84759419   357.86672809
 H     21   3   1     2.097358084494   110.75327472   187.65229534
 H     21   3   1     2.096438957959   109.32244088    67.34872208
 H     21   3   1     2.096376092939   109.30004896   307.94864208
 C      3   1   2     3.523791474015   108.32375955   133.74561535
 H     25   3   1     2.096560760084   109.28348273    34.02646678
 H     25   3   1     2.096414300734   109.33399511   274.66443447
 H     25   3   1     2.097374283798   110.76903902   154.31191259
 C      2   1   3     3.524309293570   134.16585162   236.65994178
 H     29   2   1     2.094809087345   109.40132540   310.17016475
 H     29   2   1     2.096568052603   110.77527512   189.83681415
 H     29   2   1     2.097908225758   109.27450443    69.58845256
 C      4   2   1     3.524686707580   141.05148019   346.78651231
 H     33   4   2     2.096440694962   109.33128457   330.11064434
 H     33   4   2     2.096540564398   109.31330053    89.50130891
 H     33   4   2     2.097445255681   110.79603326   209.77893053
 C      4   2   1     3.524867353635   118.91490951   144.47243603
 H     37   4   2     2.097563274204   110.78449182   144.57691924
 H     37   4   2     2.096493103108   109.32934150    24.27293601
 H     37   4   2     2.096452503553   109.34013940   264.84984170
 C      4   2   1     3.524242875261    90.69671560   243.55953019
 H     41   4   2     2.096544185156   109.31082504   311.53633076
 H     41   4   2     2.097636291624   110.75565136   191.23408653
 H     41   4   2     2.096306546971   109.33209361    70.93256988

---------------------
BASIS SET INFORMATION
---------------------
There are 4 groups of distinct atoms

 Group   1 Type Ru  : 7s6p5d1f contracted to 5s3p2d1f pattern {31111/411/41/1}
 Group   2 Type P   : 10s7p1d contracted to 4s3p1d pattern {5311/511/1}
 Group   3 Type C   : 7s4p1d contracted to 3s2p1d pattern {511/31/1}
 Group   4 Type H   : 4s1p contracted to 2s1p pattern {31/1}

Atom   0Ru   basis set group =>   1
Atom   1P    basis set group =>   2
Atom   2P    basis set group =>   2
Atom   3P    basis set group =>   2
Atom   4C    basis set group =>   3
Atom   5H    basis set group =>   4
Atom   6H    basis set group =>   4
Atom   7H    basis set group =>   4
Atom   8H    basis set group =>   4
Atom   9H    basis set group =>   4
Atom  10H    basis set group =>   4
Atom  11H    basis set group =>   4
Atom  12C    basis set group =>   3
Atom  13H    basis set group =>   4
Atom  14H    basis set group =>   4
Atom  15H    basis set group =>   4
Atom  16C    basis set group =>   3
Atom  17H    basis set group =>   4
Atom  18H    basis set group =>   4
Atom  19H    basis set group =>   4
Atom  20C    basis set group =>   3
Atom  21H    basis set group =>   4
Atom  22H    basis set group =>   4
Atom  23H    basis set group =>   4
Atom  24C    basis set group =>   3
Atom  25H    basis set group =>   4
Atom  26H    basis set group =>   4
Atom  27H    basis set group =>   4
Atom  28C    basis set group =>   3
Atom  29H    basis set group =>   4
Atom  30H    basis set group =>   4
Atom  31H    basis set group =>   4
Atom  32C    basis set group =>   3
Atom  33H    basis set group =>   4
Atom  34H    basis set group =>   4
Atom  35H    basis set group =>   4
Atom  36C    basis set group =>   3
Atom  37H    basis set group =>   4
Atom  38H    basis set group =>   4
Atom  39H    basis set group =>   4
Atom  40C    basis set group =>   3
Atom  41H    basis set group =>   4
Atom  42H    basis set group =>   4
Atom  43H    basis set group =>   4
---------------------------------
AUXILIARY/J BASIS SET INFORMATION
---------------------------------
There are 4 groups of distinct atoms

 Group   1 Type Ru  : 11s5p5d3f3g contracted to 8s5p5d2f3g pattern {41111111/11111/11111/21/111}
 Group   2 Type P   : 14s5p5d2f1g contracted to 8s4p3d1f1g pattern {71111111/2111/311/2/1}
 Group   3 Type C   : 12s5p4d2f1g contracted to 6s4p3d1f1g pattern {711111/2111/211/2/1}
 Group   4 Type H   : 5s2p1d contracted to 3s1p1d pattern {311/2/1}

Atom   0Ru   basis set group =>   1
Atom   1P    basis set group =>   2
Atom   2P    basis set group =>   2
Atom   3P    basis set group =>   2
Atom   4C    basis set group =>   3
Atom   5H    basis set group =>   4
Atom   6H    basis set group =>   4
Atom   7H    basis set group =>   4
Atom   8H    basis set group =>   4
Atom   9H    basis set group =>   4
Atom  10H    basis set group =>   4
Atom  11H    basis set group =>   4
Atom  12C    basis set group =>   3
Atom  13H    basis set group =>   4
Atom  14H    basis set group =>   4
Atom  15H    basis set group =>   4
Atom  16C    basis set group =>   3
Atom  17H    basis set group =>   4
Atom  18H    basis set group =>   4
Atom  19H    basis set group =>   4
Atom  20C    basis set group =>   3
Atom  21H    basis set group =>   4
Atom  22H    basis set group =>   4
Atom  23H    basis set group =>   4
Atom  24C    basis set group =>   3
Atom  25H    basis set group =>   4
Atom  26H    basis set group =>   4
Atom  27H    basis set group =>   4
Atom  28C    basis set group =>   3
Atom  29H    basis set group =>   4
Atom  30H    basis set group =>   4
Atom  31H    basis set group =>   4
Atom  32C    basis set group =>   3
Atom  33H    basis set group =>   4
Atom  34H    basis set group =>   4
Atom  35H    basis set group =>   4
Atom  36C    basis set group =>   3
Atom  37H    basis set group =>   4
Atom  38H    basis set group =>   4
Atom  39H    basis set group =>   4
Atom  40C    basis set group =>   3
Atom  41H    basis set group =>   4
Atom  42H    basis set group =>   4
Atom  43H    basis set group =>   4
-------------------------
ECP PARAMETER INFORMATION
-------------------------

 Group 1, Type Ru ECP Def2-ECP (replacing 28 core electrons, lmax=3)

Atom   0Ru   ECP group =>   1



           ************************************************************
           *        Program running with 32 parallel MPI-processes    *
           *              working on a common directory               *
           ************************************************************
------------------------------------------------------------------------------
                             ORCA STARTUP CALCULATIONS
                           -- RI-GTO INTEGRALS CHOSEN --
------------------------------------------------------------------------------
------------------------------------------------------------------------------
                   ___                                                        
                  /   \      - P O W E R E D   B Y -                         
                 /     \                                                     
                 |  |  |   _    _      __       _____    __    __             
                 |  |  |  | |  | |    /  \     |  _  \  |  |  /  |          
                  \  \/   | |  | |   /    \    | | | |  |  | /  /          
                 / \  \   | |__| |  /  /\  \   | |_| |  |  |/  /          
                |  |  |   |  __  | /  /__\  \  |    /   |      \           
                |  |  |   | |  | | |   __   |  |    \   |  |\   \          
                \     /   | |  | | |  |  |  |  | |\  \  |  | \   \       
                 \___/    |_|  |_| |__|  |__|  |_| \__\ |__|  \__/        
                                                                              
                      - O R C A' S   B I G   F R I E N D -                    
                                      &                                       
                       - I N T E G R A L  F E E D E R -                       
                                                                              
 v1 FN, 2020, v2 2021, v3 2022-2024                                           
------------------------------------------------------------------------------


----------------------
SHARK INTEGRAL PACKAGE
----------------------

Number of atoms                             ...     44
Number of basis functions                   ...    366
Number of shells                            ...    182
Maximum angular momentum                    ...      3
Integral batch strategy                     ... SHARK/LIBINT Hybrid
RI-J (if used) integral strategy            ... SPLIT-RIJ (Revised 2003 algorithm where possible)
Printlevel                                  ...      1
Contraction scheme used                     ... SEGMENTED contraction
Prescreening option                         ... SCHWARTZ
   Thresh                                   ... 2.500e-11
   Tcut                                     ... 2.500e-12
   Tpresel                                  ... 2.500e-12 
Coulomb Range Separation                    ... NOT USED
Exchange Range Separation                   ... Long Range
   Mu parameter                             ... 3.000e-01
   Scaling (regular/separated)              ... 1.670e-01 8.330e-01
Robust (split-)RI terms used:
  metric    (central integrals)             ... YES
  density   (r.h.s.  integrals)             ... YES
  potential (l.h.s.  integrals)             ... YES
Multipole approximations                    ... NOT USED
Finite Nucleus Model                        ... NOT USED
CABS basis                                  ... NOT available
Auxiliary Coulomb fitting basis             ... AVAILABLE
   # of basis functions in Aux-J            ...   1024
   # of shells in Aux-J                     ...    364
   Maximum angular momentum in Aux-J        ...      4
Auxiliary J/K fitting basis                 ... NOT available
Auxiliary Correlation fitting basis         ... NOT available
Auxiliary 'external' fitting basis          ... NOT available

Checking pre-screening integrals            ... done (  0.0 sec) Dimension = 182
   => SHARK Basis and OBASIS are compatible. Storing Pre-screening
Shell pair information
Shell pair cut-off parameter TPreSel        ...   2.5e-12
Total number of shell pairs                 ...     16653
Shell pairs after pre-screening             ...     10549
Total number of primitive shell pairs       ...     56910
Primitive shell pairs kept                  ...     23301
          la=0 lb=0:   3899 shell pairs
          la=1 lb=0:   4008 shell pairs
          la=1 lb=1:   1039 shell pairs
          la=2 lb=0:    943 shell pairs
          la=2 lb=1:    474 shell pairs
          la=2 lb=2:     64 shell pairs
          la=3 lb=0:     78 shell pairs
          la=3 lb=1:     35 shell pairs
          la=3 lb=2:      8 shell pairs
          la=3 lb=3:      1 shell pairs

Checking whether 4 symmetric matrices of dimension 366 fit in memory
:Max Core in MB      =   4096.00
 MB in use           =     16.23
 MB left             =   4079.77
 MB needed           =      2.05
 Data fit in memory  = YES
Calculating RI/J V-Matrix + Cholesky decomp.... done (  0.1 sec)
Calculating Nuclear repulsion               ... done (  0.0 sec) ENN=   1238.637801939867 Eh

Diagonalization of the overlap matrix:
Smallest eigenvalue                        ... 2.479e-03
Time for diagonalization                   ...    0.011 sec
Threshold for overlap eigenvalues          ... 1.000e-07
Number of eigenvalues below threshold      ... 0
Time for construction of square roots      ...    0.006 sec
Total time needed                          ...    0.020 sec

-------------------
DFT GRID GENERATION
-------------------

General Integration Accuracy     IntAcc      ... 4.959
Radial Grid Type                 RadialGrid  ... OptM3 with GC (2021)
Angular Grid (max. ang.)         AngularGrid ... 6 (Lebedev-590)
Angular grid pruning method      GridPruning ... 4 (adaptive)
Weight generation scheme         WeightScheme... mBecke (2022)
Basis function cutoff            BFCut       ... 1.0000e-11
Integration weight cutoff        WCut        ... 1.0000e-14
Partially contracted basis set               ... off
Rotationally invariant grid construction     ... off
Angular grids for H and He will be reduced by one unit

Total number of grid points                  ...   466656
Total number of batches                      ...     7315
Average number of points per batch           ...       63
Average number of grid points per atom       ...    10606

--------------------
COSX GRID GENERATION
--------------------

GRIDX 1
-------
General Integration Accuracy     IntAcc      ... 4.020
Radial Grid Type                 RadialGrid  ... OptM3 with GC (2021)
Angular Grid (max. ang.)         AngularGrid ... 2 (Lebedev-110)
Angular grid pruning method      GridPruning ... 4 (adaptive)
Weight generation scheme         WeightScheme... mBecke (2022)
Basis function cutoff            BFCut       ... 1.0000e-11
Integration weight cutoff        WCut        ... 1.0000e-14
Partially contracted basis set               ... on
Rotationally invariant grid construction     ... off
Angular grids for H and He will be reduced by one unit

Total number of grid points                  ...    49901
Total number of batches                      ...      413
Average number of points per batch           ...      120
Average number of grid points per atom       ...     1134
UseSFitting                                  ... on

GRIDX 2
-------
General Integration Accuracy     IntAcc      ... 4.338
Radial Grid Type                 RadialGrid  ... OptM3 with GC (2021)
Angular Grid (max. ang.)         AngularGrid ... 3 (Lebedev-194)
Angular grid pruning method      GridPruning ... 4 (adaptive)
Weight generation scheme         WeightScheme... mBecke (2022)
Basis function cutoff            BFCut       ... 1.0000e-11
Integration weight cutoff        WCut        ... 1.0000e-14
Partially contracted basis set               ... on
Rotationally invariant grid construction     ... off
Angular grids for H and He will be reduced by one unit

Total number of grid points                  ...   103962
Total number of batches                      ...      828
Average number of points per batch           ...      125
Average number of grid points per atom       ...     2363
UseSFitting                                  ... on

GRIDX 3
-------
General Integration Accuracy     IntAcc      ... 4.871
Radial Grid Type                 RadialGrid  ... OptM3 with GC (2021)
Angular Grid (max. ang.)         AngularGrid ... 4 (Lebedev-302)
Angular grid pruning method      GridPruning ... 4 (adaptive)
Weight generation scheme         WeightScheme... mBecke (2022)
Basis function cutoff            BFCut       ... 1.0000e-11
Integration weight cutoff        WCut        ... 1.0000e-14
Partially contracted basis set               ... on
Rotationally invariant grid construction     ... off
Angular grids for H and He will be reduced by one unit

Total number of grid points                  ...   207033
Total number of batches                      ...     1639
Average number of points per batch           ...      126
Average number of grid points per atom       ...     4705
UseSFitting                                  ... on
Grids setup in   4.7 sec
Initializing property integral containers    ... done (  0.0 sec)

SHARK setup successfully completed in   5.2 seconds

Maximum memory used throughout the entire STARTUP-calculation: 91.6 MB


           ************************************************************
           *        Program running with 32 parallel MPI-processes    *
           *              working on a common directory               *
           ************************************************************
-------------------------------------------------------------------------------
                                 ORCA GUESS
                   Start orbitals & Density for SCF / CASSCF
-------------------------------------------------------------------------------

------------
SCF SETTINGS
------------
Hamiltonian:
 Density Functional     Method          .... DFT(GTOs)
 Exchange Functional    Exchange        .... WB97X-V
 Correlation Functional Correlation     .... WB97X-V
 Gradients option       PostSCFGGA      .... off
 Hybrid DFT is turned on
   Fraction HF Exchange ScalHFX         ....  0.167000
   Scaling of DF-GGA-X  ScalDFX         ....  0.000000
   Scaling of DF-GGA-C  ScalDFC         ....  1.000000
   Scaling of DF-LDA-C  ScalLDAC        ....  1.000000
   Perturbative correction              ....  0.000000
 Long-range corrected/Screened/Range-Separated Hybrid DFT is turned on
   Amount of maximum screened exact exchange              ....  0.833000
   Range separation parameter mu (erf(mu*r12)/r12)        ....  0.300000
 RI-approximation to the Coulomb term is turned on
   Number of AuxJ basis functions       .... 1024
   RIJ-COSX (HFX calculated with COS-X)).... on


General Settings:
 Integral files         IntName         .... 1b_pme3_opt
 Hartree-Fock type      HFTyp           .... RHF
 Total Charge           Charge          ....    0
 Multiplicity           Mult            ....    1
 Number of Electrons    NEL             ....  146
 Basis Dimension        Dim             ....  366
 Nuclear Repulsion      ENuc            ....   1238.6378019399 Eh

Convergence Acceleration:
 AO-DIIS                CNVDIIS         .... on
   Start iteration      DIISMaxIt       ....    12
   Startup error        DIISStart       ....  0.200000
   # of expansion vecs  DIISMaxEq       ....     5
   Bias factor          DIISBfac        ....   1.050
   Max. coefficient     DIISMaxC        ....  10.000
 MO-DIIS                CNVKDIIS        .... off
 Trust-Rad. Augm. Hess. CNVTRAH         .... auto
   Auto Start mean grad. ratio tolernc. ....  1.125000
   Auto Start start iteration           ....    50
   Auto Start num. interpolation iter.  ....    10
   Max. Number of Micro iterations      ....    24
   Max. Number of Macro iterations      .... Maxiter - #DIIS iter
   Number of Davidson start vectors     ....     2
   Converg. threshold    (grad. norm)   ....   1.000e-05
   Grad. Scal. Fac. for Micro threshold ....   0.100
   Minimum threshold for Micro iter.    ....   1.000e-02
   NR start threshold (gradient norm)   ....   1.000e-04
   Initial trust radius                 ....   0.400
   Minimum AH scaling param. (alpha)    ....   1.000
   Maximum AH scaling param. (alpha)    .... 1000.000
   Quad. conv. algorithm                .... NR
   White noise on init. David. guess    .... on
   Maximum white noise                  ....   0.010
   Pseudo random numbers                .... off
   Inactive MOs                         .... canonical
   Orbital update algorithm             .... Taylor
   Preconditioner                       .... Diag
   Full preconditioner red. dimension   ....   250
 SOSCF                 CNVSOSCF           .... on
   Start iteration     SOSCFMaxIt         ....   150
   Startup grad/error  SOSCFStart         ....  0.003300
   Hessian update      SOSCFHessUp        .... L-BFGS
   Autom. constraints  SOSCFAutoConstrain .... off
 Level Shifting         CNVShift        .... on
   Level shift para.    LevelShift      ....    0.2500
   Turn off err/grad.   ShiftErr        ....    0.0010
 Zerner damping         CNVZerner       .... off
 Static damping         CNVDamp         .... on
   Fraction old density DampFac         ....    0.7000
   Max. Damping (<1)    DampMax         ....    0.9800
   Min. Damping (>=0)   DampMin         ....    0.0000
   Turn off err/grad.   DampErr         ....    0.1000

SCF Procedure:
 Maximum # iterations   MaxIter         ....   125
 SCF integral mode      SCFMode         .... Direct
   Integral package                     .... SHARK and LIBINT hybrid scheme
 Reset frequency        DirectResetFreq ....    20
 Integral Threshold     Thresh          ....  2.500e-11 Eh
 Primitive CutOff       TCut            ....  2.500e-12 Eh

Convergence Tolerance:
 Convergence Check Mode ConvCheckMode   .... Total+1el-Energy
 Convergence forced     ConvForced      .... 0
 Energy Change          TolE            ....  1.000e-08 Eh
 1-El. energy change                    ....  1.000e-05 Eh
 Orbital Gradient       TolG            ....  1.000e-05
 Orbital Rotation angle TolX            ....  1.000e-05
 DIIS Error             TolErr          ....  5.000e-07

------------------------------
[...]
   7 H     1.0000    0     1.008    0.012524    4.742149    2.022765
   8 H     1.0000    0     1.008   -2.093982    4.816782   -1.836961
   9 H     1.0000    0     1.008   -4.054047   -1.305566    4.428541
  10 H     1.0000    0     1.008   -6.584188    0.729625    5.417961
  11 H     1.0000    0     1.008   -3.350159    1.561508    6.037878
  12 C     6.0000    0    12.011    5.715627    5.463540   -0.078836
  13 H     1.0000    0     1.008    6.725126    3.673454    0.238919
  14 H     1.0000    0     1.008    7.014981    6.797460   -1.013277
  15 H     1.0000    0     1.008    5.143362    6.244261    1.760891
  16 C     6.0000    0    12.011    2.079681    8.166947   -2.908584
  17 H     1.0000    0     1.008    1.061590    9.076106   -1.342582
  18 H     1.0000    0     1.008    0.788317    8.106013   -4.536227
  19 H     1.0000    0     1.008    3.777613    9.264831   -3.407108
  20 C     6.0000    0    12.011   -5.876521    5.364484    2.390629
  21 H     1.0000    0     1.008   -7.737497    5.092609    3.285648
  22 H     1.0000    0     1.008   -6.086127    6.462560    0.639938
  23 H     1.0000    0     1.008   -4.631865    6.437329    3.662920
  24 C     6.0000    0    12.011   -6.835321    0.781302   -0.239273
  25 H     1.0000    0     1.008   -6.285550   -1.186446   -0.635288
  26 H     1.0000    0     1.008   -7.028263    1.766525   -2.060433
  27 H     1.0000    0     1.008   -8.668240    0.787334    0.749624
  28 C     6.0000    0    12.011    4.241404    3.677442   -4.940933
  29 H     1.0000    0     1.008    5.302295    1.948481   -4.484021
  30 H     1.0000    0     1.008    5.503984    5.048826   -5.871308
  31 H     1.0000    0     1.008    2.700812    3.175482   -6.245344
  32 C     6.0000    0    12.011    6.043508   -4.252309    1.623825
  33 H     1.0000    0     1.008    6.040134   -2.977442    3.270741
  34 H     1.0000    0     1.008    4.236676   -5.285507    1.616361
  35 H     1.0000    0     1.008    7.606651   -5.614231    1.836802
  36 C     6.0000    0    12.011    7.073485   -4.812694   -3.608515
  37 H     1.0000    0     1.008    8.609297   -6.070914   -2.973510
  38 H     1.0000    0     1.008    7.628549   -3.936821   -5.413979
  39 H     1.0000    0     1.008    5.372904   -5.959647   -3.964669
  40 C     6.0000    0    12.011    9.543263   -1.037821   -0.726679
  41 H     1.0000    0     1.008   10.040208    0.335291   -2.211165
  42 H     1.0000    0     1.008   11.001823   -2.524918   -0.666449
  43 H     1.0000    0     1.008    9.550994   -0.025213    1.097415
* core charge reduced due to ECP

--------------------------------
INTERNAL COORDINATES (ANGSTROEM)
--------------------------------
 Ru     0   0   0     0.000000000000     0.00000000     0.00000000
 P      1   0   0     2.295251118051     0.00000000     0.00000000
 P      1   2   0     2.282998257426   156.76570777     0.00000000
 P      2   1   3     4.263777407999    81.63156415   174.37756221
 C      3   1   2     1.842181694169   119.23625849   230.73870762
 H      1   2   4     1.751497285899    86.05617790    25.42916382
 H      6   1   2     0.877453662597    74.55363012   174.27906446
 H      1   2   6     1.557718486036    82.79186485    91.06656389
 H      1   2   8     1.636900767805    82.08138940    94.55649238
 H      5   3   1     1.101031741557   109.40031744   296.08975586
 H      5   3   1     1.102282008234   112.35660339   174.59928010
 H      5   3   1     1.100721115711   108.58523361    53.53037191
 C      2   1   3     1.834958760098   118.10170153   106.55346619
 H     13   2   1     1.100442506365   110.33290360    70.55895313
 H     13   2   1     1.102524138569   111.41795800   191.11600945
 H     13   2   1     1.100079021251   108.64779397   311.40703094
 C      2   1   3     1.834376634666   113.14275105   349.24519355
 H     17   2   1     1.099293874149   108.73204909    45.80108101
 H     17   2   1     1.099945129635   108.83003267   289.13284698
 H     17   2   1     1.102016760386   111.79535061   167.99936954
 C      3   1   2     1.835616469717   113.25538183   349.11460092
 H     21   3   1     1.102189420399   111.99018840   181.26989597
 H     21   3   1     1.099189827627   108.61436057    59.66304381
 H     21   3   1     1.099732887282   108.67494189   302.79658026
 C      3   1   2     1.841868840017   118.26494020   107.23124886
 H     25   3   1     1.101287146314   109.76535676    63.08992361
 H     25   3   1     1.100448842332   108.85317530   305.30906566
 H     25   3   1     1.102105423104   111.88696690   184.23425868
 C      2   1   3     1.844860832104   119.05790494   230.30027348
 H     29   2   1     1.100328043396   108.10692569   288.06894721
 H     29   2   1     1.102468046568   112.45728739   166.87231493
 H     29   2   1     1.100749171000   109.05174946    45.68602068
 C      4   2   1     1.847523819585   122.37605253   316.40653571
 H     33   4   2     1.102116205900   108.44354059   324.18932291
 H     33   4   2     1.101425421002   110.13214537    81.90040503
 H     33   4   2     1.102875663336   112.58392624   203.88949300
 C      4   2   1     1.851234204616   132.20126341   105.48945184
 H     37   4   2     1.103060757886   112.46959370   156.84873911
 H     37   4   2     1.101775664839   109.65943027    35.69077942
 H     37   4   2     1.101696090073   109.54191021   277.90466588
 C      4   2   1     1.850857338417    94.53030395   213.14585777
 H     41   4   2     1.101920822601   110.48832733   308.47717619
 H     41   4   2     1.102732566275   112.65753862   186.40788960
 H     41   4   2     1.104035729665   108.46547686    66.19191529

---------------------------
INTERNAL COORDINATES (A.U.)
---------------------------
 Ru     0   0   0     0.000000000000     0.00000000     0.00000000
 P      1   0   0     4.337396021694     0.00000000     0.00000000
 P      1   2   0     4.314241470755   156.76570777     0.00000000
 P      2   1   3     8.057371597119    81.63156415   174.37756221
 C      3   1   2     3.481218890903   119.23625849   230.73870762
 H      1   2   4     3.309850194655    86.05617790    25.42916382
 H      6   1   2     1.658147117514    74.55363012   174.27906446
 H      1   2   6     2.943661332355    82.79186485    91.06656389
 H      1   2   8     3.093294159558    82.08138940    94.55649238
 H      5   3   1     2.080648456298   109.40031744   296.08975586
 H      5   3   1     2.083011117911   112.35660339   174.59928010
 H      5   3   1     2.080061458518   108.58523361    53.53037191
 C      2   1   3     3.467569523625   118.10170153   106.55346619
 H     13   2   1     2.079534963155   110.33290360    70.55895313
 H     13   2   1     2.083468677932   111.41795800   191.11600945
 H     13   2   1     2.078848075836   108.64779397   311.40703094
 C      2   1   3     3.466469465984   113.14275105   349.24519355
 H     17   2   1     2.077364362838   108.73204909    45.80108101
 H     17   2   1     2.078595057351   108.83003267   289.13284698
 H     17   2   1     2.082509872121   111.79535061   167.99936954
 C      3   1   2     3.468812414681   113.25538183   349.11460092
 H     21   3   1     2.082836152260   111.99018840   181.26989597
 H     21   3   1     2.077167743407   108.61436057    59.66304381
 H     21   3   1     2.078193977429   108.67494189   302.79658026
 C      3   1   2     3.480627682235   118.26494020   107.23124886
 H     25   3   1     2.081131101342   109.76535676    63.08992361
 H     25   3   1     2.079546936398   108.85317530   305.30906566
 H     25   3   1     2.082677420375   111.88696690   184.23425868
 C      2   1   3     3.486281727875   119.05790494   230.30027348
 H     29   2   1     2.079318659493   108.10692569   288.06894721
 H     29   2   1     2.083362679413   112.45728739   166.87231493
 H     29   2   1     2.080114475331   109.05174946    45.68602068
 C      4   2   1     3.491314044913   122.37605253   316.40653571
 H     33   4   2     2.082697796907   108.44354059   324.18932291
 H     33   4   2     2.081392402633   110.13214537    81.90040503
 H     33   4   2     2.084132963472   112.58392624   203.88949300
 C      4   2   1     3.498325656472   132.20126341   105.48945184
 H     37   4   2     2.084482741480   112.46959370   156.84873911
 H     37   4   2     2.082054267566   109.65943027    35.69077942
 H     37   4   2     2.081903893050   109.54191021   277.90466588
 C      4   2   1     3.497613482566    94.53030395   213.14585777
 H     41   4   2     2.082328575982   110.48832733   308.47717619
 H     41   4   2     2.083862549216   112.65753862   186.40788960
 H     41   4   2     2.086325171130   108.46547686    66.19191529



           ************************************************************
           *        Program running with 32 parallel MPI-processes    *
           *              working on a common directory               *
           ************************************************************
------------------------------------------------------------------------------
                   ___                                                        
                  /   \      - P O W E R E D   B Y -                         
                 /     \                                                     
                 |  |  |   _    _      __       _____    __    __             
                 |  |  |  | |  | |    /  \     |  _  \  |  |  /  |          
                  \  \/   | |  | |   /    \    | | | |  |  | /  /          
                 / \  \   | |__| |  /  /\  \   | |_| |  |  |/  /          
                |  |  |   |  __  | /  /__\  \  |    /   |      \           
                |  |  |   | |  | | |   __   |  |    \   |  |\   \          
                \     /   | |  | | |  |  |  |  | |\  \  |  | \   \       
                 \___/    |_|  |_| |__|  |__|  |_| \__\ |__|  \__/        
                                                                              
                      - O R C A' S   B I G   F R I E N D -                    
                                      &                                       
                       - I N T E G R A L  F E E D E R -                       
                                                                              
 v1 FN, 2020, v2 2021, v3 2022-2024                                           
------------------------------------------------------------------------------


----------------------
SHARK INTEGRAL PACKAGE
----------------------

Number of atoms                             ...     44
Number of basis functions                   ...    366
Number of shells                            ...    182
Maximum angular momentum                    ...      3
Integral batch strategy                     ... SHARK/LIBINT Hybrid
RI-J (if used) integral strategy            ... SPLIT-RIJ (Revised 2003 algorithm where possible)
Printlevel                                  ...      1
Contraction scheme used                     ... SEGMENTED contraction
Prescreening option                         ... SCHWARTZ
   Thresh                                   ... 2.500e-11
   Tcut                                     ... 2.500e-12
   Tpresel                                  ... 2.500e-12 
Coulomb Range Separation                    ... NOT USED
Exchange Range Separation                   ... Long Range
   Mu parameter                             ... 3.000e-01
   Scaling (regular/separated)              ... 1.670e-01 8.330e-01
Robust (split-)RI terms used:
  metric    (central integrals)             ... YES
  density   (r.h.s.  integrals)             ... YES
  potential (l.h.s.  integrals)             ... YES
Multipole approximations                    ... NOT USED
Finite Nucleus Model                        ... NOT USED
CABS basis                                  ... NOT available
Auxiliary Coulomb fitting basis             ... AVAILABLE
   # of basis functions in Aux-J            ...   1024
   # of shells in Aux-J                     ...    364
   Maximum angular momentum in Aux-J        ...      4
Auxiliary J/K fitting basis                 ... NOT available
Auxiliary Correlation fitting basis         ... NOT available
Auxiliary 'external' fitting basis          ... NOT available

Checking pre-screening integrals            ... done (  0.0 sec) Dimension = 182
   => SHARK Basis and OBASIS are compatible. Storing Pre-screening
Shell pair information
Shell pair cut-off parameter TPreSel        ...   2.5e-12
Total number of shell pairs                 ...     16653
Shell pairs after pre-screening             ...     12326
Total number of primitive shell pairs       ...     56910
Primitive shell pairs kept                  ...     27540
          la=0 lb=0:   4498 shell pairs
          la=1 lb=0:   4729 shell pairs
          la=1 lb=1:   1240 shell pairs
          la=2 lb=0:   1093 shell pairs
          la=2 lb=1:    551 shell pairs
          la=2 lb=2:     69 shell pairs
          la=3 lb=0:     86 shell pairs
          la=3 lb=1:     48 shell pairs
          la=3 lb=2:     11 shell pairs
          la=3 lb=3:      1 shell pairs

Checking whether 4 symmetric matrices of dimension 366 fit in memory
:Max Core in MB      =   4096.00
 MB in use           =     19.41
 MB left             =   4076.59
 MB needed           =      2.05
 Data fit in memory  = YES
Calculating RI/J V-Matrix + Cholesky decomp.... done (  0.1 sec)
Calculating Nuclear repulsion               ... done (  0.0 sec) ENN=   1399.355942645068 Eh

Diagonalization of the overlap matrix:
Smallest eigenvalue                        ... 1.998e-03
Time for diagonalization                   ...    0.011 sec
Threshold for overlap eigenvalues          ... 1.000e-07
Number of eigenvalues below threshold      ... 0
Time for construction of square roots      ...    0.006 sec
Total time needed                          ...    0.020 sec

-------------------
DFT GRID GENERATION
-------------------

General Integration Accuracy     IntAcc      ... 4.959
Radial Grid Type                 RadialGrid  ... OptM3 with GC (2021)
Angular Grid (max. ang.)         AngularGrid ... 6 (Lebedev-590)
Angular grid pruning method      GridPruning ... 4 (adaptive)
Weight generation scheme         WeightScheme... mBecke (2022)
Basis function cutoff            BFCut       ... 1.0000e-11
Integration weight cutoff        WCut        ... 1.0000e-14
Partially contracted basis set               ... off
Rotationally invariant grid construction     ... off
Angular grids for H and He will be reduced by one unit

Total number of grid points                  ...   461273
Total number of batches                      ...     7231
Average number of points per batch           ...       63
Average number of grid points per atom       ...    10483

--------------------
COSX GRID GENERATION
--------------------

GRIDX 1
-------
General Integration Accuracy     IntAcc      ... 4.020
Radial Grid Type                 RadialGrid  ... OptM3 with GC (2021)
Angular Grid (max. ang.)         AngularGrid ... 2 (Lebedev-110)
Angular grid pruning method      GridPruning ... 4 (adaptive)
Weight generation scheme         WeightScheme... mBecke (2022)
Basis function cutoff            BFCut       ... 1.0000e-11
Integration weight cutoff        WCut        ... 1.0000e-14
Partially contracted basis set               ... on
Rotationally invariant grid construction     ... off
Angular grids for H and He will be reduced by one unit

Total number of grid points                  ...    49021
Total number of batches                      ...      405
Average number of points per batch           ...      121
Average number of grid points per atom       ...     1114
UseSFitting                                  ... on

GRIDX 2
-------
General Integration Accuracy     IntAcc      ... 4.338
Radial Grid Type                 RadialGrid  ... OptM3 with GC (2021)
Angular Grid (max. ang.)         AngularGrid ... 3 (Lebedev-194)
Angular grid pruning method      GridPruning ... 4 (adaptive)
Weight generation scheme         WeightScheme... mBecke (2022)
Basis function cutoff            BFCut       ... 1.0000e-11
Integration weight cutoff        WCut        ... 1.0000e-14
Partially contracted basis set               ... on
Rotationally invariant grid construction     ... off
Angular grids for H and He will be reduced by one unit

Total number of grid points                  ...   102417
Total number of batches                      ...      823
Average number of points per batch           ...      124
Average number of grid points per atom       ...     2328
UseSFitting                                  ... on

GRIDX 3
-------
General Integration Accuracy     IntAcc      ... 4.871
Radial Grid Type                 RadialGrid  ... OptM3 with GC (2021)
Angular Grid (max. ang.)         AngularGrid ... 4 (Lebedev-302)
Angular grid pruning method      GridPruning ... 4 (adaptive)
Weight generation scheme         WeightScheme... mBecke (2022)
Basis function cutoff            BFCut       ... 1.0000e-11
Integration weight cutoff        WCut        ... 1.0000e-14
Partially contracted basis set               ... on
Rotationally invariant grid construction     ... off
Angular grids for H and He will be reduced by one unit

Total number of grid points                  ...   203559
Total number of batches                      ...     1609
Average number of points per batch           ...      126
Average number of grid points per atom       ...     4626
UseSFitting                                  ... on
Grids setup in   5.0 sec
Initializing property integral containers    ... done (  0.0 sec)

SHARK setup successfully completed in   5.5 seconds

Maximum memory used throughout the entire STARTUP-calculation: 91.9 MB


           ************************************************************
           *        Program running with 32 parallel MPI-processes    *
           *              working on a common directory               *
           ************************************************************
Occupation numbers will be reassigned to an Aufbau configuration
             **** ENERGY FILE WAS UPDATED (1b_pme3_opt.en.tmp) ****
Finished Guess after   0.3 sec
Maximum memory used throughout the entire GUESS-calculation: 24.7 MB


           ************************************************************
           *        Program running with 32 parallel MPI-processes    *
           *              working on a common directory               *
           ************************************************************
----------------------------------------D-I-I-S--------------------------------------------
Iteration    Energy (Eh)           Delta-E    RMSDP     MaxDP     DIISErr   Damp  Time(sec)
-------------------------------------------------------------------------------------------
               ***  Starting incremental Fock matrix formation  ***
    1    -1480.2853765058596309     0.00e+00  2.21e-04  1.77e-03  1.26e-02  0.700   2.3
    2    -1480.2855654489851531    -1.89e-04  2.07e-04  1.68e-03  8.89e-03  0.700   0.9
                               ***Turning on AO-DIIS***
    3    -1480.2857243978039605    -1.59e-04  1.99e-04  1.61e-03  6.25e-03  0.700   1.1
    4    -1480.2858516016692647    -1.27e-04  5.66e-04  4.44e-03  4.37e-03  0.000   1.1
                              *** Initializing SOSCF ***
---------------------------------------S-O-S-C-F--------------------------------------
Iteration    Energy (Eh)           Delta-E    RMSDP     MaxDP     MaxGrad    Time(sec)
--------------------------------------------------------------------------------------
    5    -1480.2862282348853569    -3.77e-04  1.07e-04  7.85e-04  4.42e-04     1.0
               *** Restarting incremental Fock matrix formation ***
    6    -1480.2862346694680582    -6.43e-06  8.33e-05  8.29e-04  1.80e-04     2.2
    7    -1480.2862372095326009    -2.54e-06  9.76e-05  9.85e-04  9.42e-05     1.4
