
                                 *****************
                                 * O   R   C   A *
                                 *****************

                                            #,                                       
                                            ###                                      
                                            ####                                     
                                            #####                                    
                                            ######                                   
                                           ########,                                 
                                     ,,################,,,,,                         
                               ,,#################################,,                 
                          ,,##########################################,,             
                       ,#########################################, ''#####,          
                    ,#############################################,,   '####,        
                  ,##################################################,,,,####,       
                ,###########''''           ''''###############################       
              ,#####''   ,,,,##########,,,,          '''####'''          '####       
            ,##' ,,,,###########################,,,                        '##       
           ' ,,###''''                  '''############,,,                           
         ,,##''                                '''############,,,,        ,,,,,,###''
      ,#''                                            '''#######################'''  
     '                                                          ''''####''''         
             ,#######,   #######,   ,#######,      ##                                
            ,#'     '#,  ##    ##  ,#'     '#,    #''#        ,####,    ,#,          
            ##       ##  ##   ,#'  ##            #'  '#       #'       ,# #          
            ##       ##  #######   ##           ,######,      #####,      #          
            '#,     ,#'  ##    ##  '#,     ,#' ,#      #,     #,   #      #          
             '#######'   ##     ##  '#######'  #'      '#     '####' #    #          



                #########################################################
                #                        -***-                          #
                #          Department of theory and spectroscopy        #
                #                                                       #
                #                      Frank Neese                      #
                #                                                       #
                #     Directorship, Architecture, Infrastructure        #
                #                    SHARK, DRIVERS                     #
                #        Core code/Algorithms in most modules           #
                #                                                       #
                #        Max Planck Institute fuer Kohlenforschung      #
                #                Kaiser Wilhelm Platz 1                 #
                #                 D-45470 Muelheim/Ruhr                 #
                #                      Germany                          #
                #                                                       #
                #                  All rights reserved                  #
                #                        -***-                          #
                #########################################################


                         Program Version 6.1.1  -  RELEASE   -
                                (GIT: $487d211c$)
                          ($2025-11-21 10:33:24 +0100$)


 With contributions from (in alphabetic order):
[Max-Planck-Institut fuer Kohlenforschung]                               
  Daniel Aravena         : Magnetic Suceptibility                        
  Michael Atanasov       : Ab Initio Ligand Field Theory (pilot matlab implementation)
  Alexander A. Auer      : GIAO ZORA, VPT2 properties, NMR spectrum      
  Ute Becker             : All parallelization in ORCA, NUMFREQ, NUMCALC 
  Giovanni Bistoni       : ED, misc. LED, open-shell LED, HFLD           
  Dmytro Bykov           : pre 5.0 version of the SCF Hessian            
  Marcos Casanova-Páez   : Triplet and SCS-CIS(D). UHF-(DLPNO)-IP/EA/STEOM-CCSD. UHF-CVS-IP/STEOM-CCSD   
  Vijay G. Chilkuri      : MRCI spin determinant printing, contributions to CSF-ICE 
  Pauline Colinet        : FMM embedding                                 
  Dipayan Datta          : RHF DLPNO-CCSD density                        
  Achintya Kumar Dutta   : EOM-CC, STEOM-CC                              
  Nicolas Foglia         : Exact transition moments, OPA infrastructure, MCD improvements    
  Dmitry Ganyushin       : Spin-Orbit,Spin-Spin,Magnetic field MRCI      
  Miquel Garcia-Rates    : C-PCM and meta-GGA Hessian, CCSD/C-PCM, Gaussian charge scheme 
  Tiago L. C. Gouveia    : GS-ROHF, GS-ROCIS                             
  Yang Guo               : DLPNO-NEVPT2, F12-NEVPT2, CIM, IAO-localization        
  Andreas Hansen         : Spin unrestricted coupled pair/coupled cluster methods 
  Ingolf Harden          : AUTO-CI MPn and infrastructure                
  Benjamin Helmich-Paris : MC-RPA, TRAH-(SCF,CASSCF), AVAS, COSX integrals, SCF dyn. polar., MC-PDFT, srDFT 
  Lee Huntington         : MR-EOM, pCC                                   
  Robert Izsak           : Overlap fitted RIJCOSX, COSX-SCS-MP3, EOM     
  Riya Kayal             : Wick's Theorem for AUTO-CI, AUTO-CI UHF-CCSDT 
  Emily Kempfer          : AUTO-CI RHF CISDT and CCSDT, approximate NEVPT4
  Christian Kollmar      : KDIIS, OOCD, Brueckner-CCSD(T), CCSD density, CASPT2, CASPT2-K, improved NEVPT2 
  Axel Koslowski         : Symmetry handling                             
  Simone Kossmann        : meta-GGA functionals, TD-DFT gradient, OOMP2, (MP2 Hessian; deprecated post 5.0) 
  Lucas Lang             : DCDCAS, Hyperfine gauge corrections, ICE-SOC+SSC
  Marvin Lechner         : AUTO-CI (C++ implementation), FIC-MRCC        
  Spencer Leger          : CASSCF response                               
  Dagmar Lenk            : GEPOL surface, SMD, ORCA-2-JSON               
  Dimitrios Liakos       : Extrapolation schemes; Compound Job, Property file
  Dimitrios Manganas     : Further ROCIS development; embedding schemes. LFT, Crystal Embedding 
  Dimitrios Pantazis     : SARC Basis sets                               
  Anastasios Papadopoulos: AUTO-CI, single reference methods and gradients 
  Taras Petrenko         : pre 6.0 DFT Hessian and TD-DFT gradient,  ECA, NRVS 
  Petra Pikulova         : Analytic Raman intensities                    
  Peter Pinski           : DLPNO-MP2, DLPNO-MP2 Gradient                 
  Shashank Vittal Rao    : ES-AILFT, MagRelax                            
  Christoph Reimann      : Effective Core Potentials                     
  Marius Retegan         : Local ZFS, SOC                                
  Christoph Riplinger    : Optimizer, TS searches, QM/MM, DLPNO-CCSD(T), (RO)-DLPNO pert. Triples 
  Michael Roemelt        : Original ROCIS implementation, recursive CI coupling coefficients
  Masaaki Saitow         : Open-shell DLPNO-CCSD energy and density      
  Barbara Sandhoefer     : DKH picture change effects                    
  Yorick L. A. Schmerwitz: GMF and freeze-and-release deltaSCF, NEB S-IDPP initial path                    
  Kantharuban Sivalingam : CASSCF convergence/infrastructure, NEVPT2, NEVPT3, NEVPT4(SD), FIC-MRCI and CEPA variants
  Bernardo de Souza      : ESD, SOC TD-DFT                               
  Georgi L. Stoychev     : AutoAux, RI-MP2 NMR, DLPNO-MP2 response, X2C  
  Van Anh Tran           : RI-MP2 g-tensors                              
  Willem Van den Heuvel  : Paramagnetic NMR                              
  Zikuan Wang            : NOTCH, Electric field optimization            
  Frank Wennmohs         : Technical directorship and infrastructure     
  Hang Xu                : AUTO-CI-Response properties                   
                                                                         
[FACCTs GmbH]                                                            
  Markus Bursch, Nicolas Foglia, Miquel Garcia-Rates, Ingolf Harden, Hagen Neugebauer, Anastasios Papadopoulos, 
  Christoph Riplinger, Bernardo de Souza, Georgi L. Stoychev                                                    
                                                                 
  APM, various basis sets, CI-OPT, improved COSX, DLPNO-Multilevel,           
  DOCKER, DRACO, updates on ESD, Fragmentator, GOAT, IRC, LR-CPCM, L-BFGS, MBIS, meta-GGA TD-DFT gradient, ML-optimized integration grids, 
  MM, NACMEs, nearIR, NEB, NEB-TS, NL-DFT gradient (VV10), 2- and 3-layer-ONIOM, interface openCOSMO-RS, QMMM,   
  Crystal-QMMM, RESP, rigid body optimization, SF, symmetry and pop. for TD-DFT, various functionals, SOLVATOR                                   
                                                                         
[Other institutions]                                                     
  V. Asgeirsson          : NEB                                           
  Christoph Bannwarth    : sTDA-DFT, sTD-DFT, PBEh-3c, B97-3c, D3        
  Giovanni Bistoni       : ETS/NOCV, ADLD/ADEX, COVALED                  
  Martin Brehm           : Molecular dynamics                            
  Ronald Cardenas        : ETS/NOCV                                      
  Martina Colucci        : COVALED                                       
  Sebastian Ehlert       : rSCAN, r2SCAN, r2SCAN-3c, D4, dhf basis sets  
  Marvin Friede          : D4 for Fr, Ra, Ac-Lr                          
  Lars Goerigk           : TD-DFT with DH, B97 family of functionals     
  Stefan Grimme          : VdW corrections, initial TS optimization, DFT functionals, gCP, sTDA/sTD-DF 
  Waldemar Hujo          : DFT-NL                                        
  H. Jonsson             : NEB                                           
  Holger Kruse           : gCP                                           
  Marcel Mueller         : wB97X-3c, vDZP basis set                      
  Hagen Neugebauer       : wr2SCAN, Native XTB                           
  Gianluca Regni         : ADLD/ADEX                                     
  Tobias Risthaus        : pre 6.0 range-separated hybrid DFT and stability analysis
  Lukas Wittmann         : regularized MP2, r2SCAN double-hybrids, wr2SCAN        
                                                                         
We gratefully acknowledge several colleagues who have allowed us to      
interface, adapt or use parts of their codes:                            
  Ed Valeev, F. Pavosevic, A. Kumar             : LibInt (2-el integral package), F12 methods 
  Garnet Chan, S. Sharma, J. Yang, R. Olivares  : DMRG                   
  Ulf Ekstrom                                   : XCFun DFT Library      
  Mihaly Kallay                                 : mrcc  (arbitrary order and MRCC methods)
  Frank Weinhold                                : gennbo (NPA and NBO analysis)           
  Simon Mueller                                 : openCOSMO-RS                            
  Christopher J. Cramer and Donald G. Truhlar   : smd solvation model                     
  S Lehtola, MJT Oliveira, MAL Marques          : LibXC Library                           
  Liviu Ungur et al                             : ANISO software                          


 Your calculation uses the libint2 library for the computation of 2-el integrals
 For citations please refer to: http://libint.valeyev.net

 Your ORCA version has been built with support for libXC version: 7.0.0
 For citations please refer to: https://libxc.gitlab.io

 This ORCA versions uses:
   CBLAS   interface :  Fast vector & matrix operations
   LAPACKE interface :  Fast linear algebra routines
   SCALAPACK package :  Parallel linear algebra routines
   Shared memory     :  Shared parallel matrices
   BLAS/LAPACK       :  OpenBLAS 0.3.29  USE64BITINT DYNAMIC_ARCH NO_AFFINITY Cooperlake SINGLE_THREADED
        Core in use  :  Cooperlake
   Copyright (c) 2011-2014, The OpenBLAS Project


  ***********************************
  * Starting time: Mon Jul 20 18:55:44 2026
  * Host name:     c1-3
  * Process ID:    3354152
  * Working dir.:  /cluster/projects/nn14654k/ylvaos/TPhP_bsse/orca/geomopt_wb97x-d4_def2svp_pme3
  ***********************************

Your calculation utilizes the atom-pairwise dispersion correction
based on EEQ partial charges (D4)


Warning: RI is on but no J-basis has been assigned. Assigning Def2/J (nothing to worry about!)
================================================================================

----- Orbital basis set information -----
Your calculation utilizes the basis: def2-SVP
   F. Weigend and R. Ahlrichs, Phys. Chem. Chem. Phys. 7, 3297 (2005).

----- AuxJ basis set information -----
Your calculation utilizes the auxiliary basis: def2/J
   H-Rn: F. Weigend, Phys. Chem. Chem. Phys. 8, 1057 (2006).
   Fr-Lr: K. Eichkorn, F. Weigend, O. Treutler, R. Ahlrichs; Theor. Chem. Acc. 97, 119 (1997).

================================================================================
                                        WARNINGS
                       Please study these warnings very carefully!
================================================================================


WARNING: Geometry Optimization
  ===> : Switching off AutoStart
         For restart on a previous wavefunction, please use MOREAD

================================================================================
                                       INPUT FILE
================================================================================
NAME = TPhP_pme3_opt.inp
|  1> ! wB97X-D4 def2-SVP TightSCF defgrid3 Opt
|  2> 
|  3> %pal nprocs 32 end
|  4> 
|  5> %loc
|  6>   LocMet NEWBOYS
|  7>   Occ true
|  8> end
|  9> 
| 10> *xyz 0 1
| 11>  P        0.79443       -4.33409        0.12510
| 12>    C       -0.73097       -3.75634        1.02958
| 13>    H       -0.83007       -2.65697        0.91647
| 14>    H       -0.66738       -4.00710        2.10901
| 15>    H       -1.62465       -4.24879        0.59388
| 16>    C        0.82705       -6.08005        0.78158
| 17>    H        0.72618       -6.08720        1.88700
| 18>    H        1.78721       -6.56012        0.50112
| 19>    H       -0.01058       -6.65576        0.33669
| 20>    C        2.06058       -3.60921        1.28652
| 21>    H        3.06662       -3.99367        1.02011
| 22>    H        1.83248       -3.88139        2.33804
| 23>    H        2.05538       -2.50511        1.18989
| 24> **                         ****END OF INPUT****
================================================================================

                       *****************************
                       * Geometry Optimization Run *
                       *****************************

Geometry optimization settings:
Update method            Update   .... BFGS
Choice of coordinates    CoordSys .... (2022) Redundant Internals
Initial Hessian          InHess   .... Almloef's Model
Max. no of cycles        MaxIter  .... 50

Convergence Tolerances:
Energy Change            TolE     ....  5.0000e-06 Eh
Max. Gradient            TolMAXG  ....  3.0000e-04 Eh/bohr
RMS Gradient             TolRMSG  ....  1.0000e-04 Eh/bohr
Max. Displacement        TolMAXD  ....  4.0000e-03 bohr
RMS Displacement         TolRMSD  ....  2.0000e-03 bohr
Strict Convergence                .... False

------------------------------------------------------------------------------
                        ORCA OPTIMIZATION COORDINATE SETUP
------------------------------------------------------------------------------

The optimization will be done in redundant internal coordinates (2022)
Making redundant internal coordinates   ...  (2022 redundants) done
Evaluating the initial hessian          ...  (Almloef) done
Evaluating the coordinates              ...  done
Calculating the B-matrix                .... done
Calculating the G-matrix                .... done
The number of degrees of freedom        ....   48

    -----------------------------------------------------------------
                    Redundant Internal Coordinates


    -----------------------------------------------------------------
         Definition                    Initial Value    Approx d2E/dq
    -----------------------------------------------------------------
      1. B(C   1,P   0)                  1.8651         0.366595   
      2. B(H   2,C   1)                  1.1096         0.335074   
      3. B(H   3,C   1)                  1.1100         0.334595   
      4. B(H   4,C   1)                  1.1095         0.335198   
      5. B(C   5,P   0)                  1.8656         0.365988   
      6. B(H   6,C   5)                  1.1100         0.334547   
      7. B(H   7,C   5)                  1.1095         0.335183   
      8. B(H   8,C   5)                  1.1095         0.335205   
      9. B(C   9,P   0)                  1.8648         0.367044   
     10. B(H  10,C   9)                  1.1095         0.335256   
     11. B(H  11,C   9)                  1.1099         0.334754   
     12. B(H  12,C   9)                  1.1083         0.336647   
     13. A(C   1,P   0,C   5)           97.6751         0.409086   
     14. A(C   5,P   0,C   9)           97.6290         0.409174   
     15. A(C   1,P   0,C   9)           97.6350         0.409294   
     16. A(H   2,C   1,H   4)          109.1343         0.284381   
     17. A(H   3,C   1,H   4)          109.1327         0.284317   
     18. A(P   0,C   1,H   2)          109.3000         0.339113   
     19. A(P   0,C   1,H   3)          110.7784         0.339033   
     20. A(P   0,C   1,H   4)          109.3195         0.339134   
     21. A(H   2,C   1,H   3)          109.1518         0.284301   
     22. A(H   7,C   5,H   8)          109.1145         0.284396   
     23. A(H   6,C   5,H   8)          109.1091         0.284312   
     24. A(P   0,C   5,H   8)          109.3487         0.339042   
     25. A(P   0,C   5,H   7)          109.3368         0.339038   
     26. A(P   0,C   5,H   6)          110.7852         0.338931   
     27. A(H   6,C   5,H   7)          109.1217         0.284309   
     28. A(H  11,C   9,H  12)          109.0224         0.284529   
     29. A(H  10,C   9,H  12)          109.1793         0.284596   
     30. A(P   0,C   9,H  12)          109.2534         0.339448   
     31. A(H  10,C   9,H  11)          109.2010         0.284346   
     32. A(P   0,C   9,H  11)          110.8057         0.339129   
     33. A(P   0,C   9,H  10)          109.3554         0.339214   
     34. D(H   2,C   1,P   0,C   5)    169.7898         0.010000   
     35. D(H   3,C   1,P   0,C   5)     49.4807         0.010000   
     36. D(H   4,C   1,P   0,C   5)    -70.8173         0.010000   
     37. D(H   2,C   1,P   0,C   9)     70.9761         0.010000   
     38. D(H   3,C   1,P   0,C   9)    -49.3330         0.010000   
     39. D(H   6,C   5,P   0,C   9)     49.3922         0.010000   
     40. D(H   6,C   5,P   0,C   1)    -49.4266         0.010000   
     41. D(H   8,C   5,P   0,C   1)     70.8652         0.010000   
     42. D(H   7,C   5,P   0,C   9)    -70.9076         0.010000   
     43. D(H   7,C   5,P   0,C   1)   -169.7264         0.010000   
     44. D(H  11,C   9,P   0,C   5)    -49.1134         0.010000   
     45. D(H  11,C   9,P   0,C   1)     49.7401         0.010000   
     46. D(H  10,C   9,P   0,C   5)     71.3096         0.010000   
     47. D(H  12,C   9,P   0,C   1)    -70.3957         0.010000   
     48. D(H  10,C   9,P   0,C   1)    170.1631         0.010000   
    -----------------------------------------------------------------

Number of atoms                         .... 13
Number of degrees of freedom            .... 48


         *************************************************************
         *                GEOMETRY OPTIMIZATION CYCLE   1            *
         *************************************************************
---------------------------------
CARTESIAN COORDINATES (ANGSTROEM)
---------------------------------
  P      0.794430   -4.334090    0.125100
  C     -0.730970   -3.756340    1.029580
  H     -0.830070   -2.656970    0.916470
  H     -0.667380   -4.007100    2.109010
  H     -1.624650   -4.248790    0.593880
  C      0.827050   -6.080050    0.781580
  H      0.726180   -6.087200    1.887000
  H      1.787210   -6.560120    0.501120
  H     -0.010580   -6.655760    0.336690
  C      2.060580   -3.609210    1.286520
  H      3.066620   -3.993670    1.020110
  H      1.832480   -3.881390    2.338040
  H      2.055380   -2.505110    1.189890

----------------------------
CARTESIAN COORDINATES (A.U.)
----------------------------
  NO LB      ZA    FRAG     MASS         X           Y           Z
   0 P    15.0000    0    30.974    1.501255   -8.190243    0.236405
   1 C     6.0000    0    12.011   -1.381333   -7.098454    1.945624
   2 H     1.0000    0     1.008   -1.568605   -5.020946    1.731877
   3 H     1.0000    0     1.008   -1.261165   -7.572322    3.985451
   4 H     1.0000    0     1.008   -3.070144   -8.029050    1.122271
   5 C     6.0000    0    12.011    1.562898  -11.489629    1.476972
   6 H     1.0000    0     1.008    1.372281  -11.503141    3.565913
   7 H     1.0000    0     1.008    3.377337  -12.396830    0.946980
   8 H     1.0000    0     1.008   -0.019993  -12.577564    0.636252
   9 C     6.0000    0    12.011    3.893932   -6.820418    2.431170
  10 H     1.0000    0     1.008    5.795072   -7.546943    1.927729
  11 H     1.0000    0     1.008    3.462885   -7.334764    4.418255
  12 H     1.0000    0     1.008    3.884105   -4.733972    2.248566

--------------------------------
INTERNAL COORDINATES (ANGSTROEM)
--------------------------------
 P      0   0   0     0.000000000000     0.00000000     0.00000000
 C      1   0   0     1.865133853883     0.00000000     0.00000000
 H      2   1   0     1.109607623892   109.30002432     0.00000000
 H      2   1   3     1.109997022789   110.77840799   239.69088887
 H      2   1   3     1.109506843106   109.31951200   119.39288223
 C      1   2   3     1.865584727746    97.67508036   169.78981533
 H      6   1   2     1.110035700237   110.78521864   310.57336364
 H      6   1   2     1.109518923723   109.33680574   190.27358584
 H      6   1   2     1.109501299278   109.34870432    70.86515893
 C      1   2   3     1.864801129692    97.63495484    70.97612356
 H     10   1   2     1.109459445541   109.35540923   170.16308829
 H     10   1   2     1.109867502362   110.80566088    49.74008202
 H     10   1   2     1.108332624666   109.25343018   289.60432063

---------------------------
INTERNAL COORDINATES (A.U.)
---------------------------
 P      0   0   0     0.000000000000     0.00000000     0.00000000
 C      1   0   0     3.524592186944     0.00000000     0.00000000
 H      2   1   0     2.096854525268   109.30002432     0.00000000
 H      2   1   3     2.097590382539   110.77840799   239.69088887
 H      2   1   3     2.096664077183   109.31951200   119.39288223
 C      1   2   3     3.525444215066    97.67508036   169.78981533
 H      6   1   2     2.097663472323   110.78521864   310.57336364
 H      6   1   2     2.096686906240   109.33680574   190.27358584
 H      6   1   2     2.096653600866   109.34870432    70.86515893
 C      1   2   3     3.523963429345    97.63495484    70.97612356
 H     10   1   2     2.096574508764   109.35540923   170.16308829
 H     10   1   2     2.097345624404   110.80566088    49.74008202
 H     10   1   2     2.094445125910   109.25343018   289.60432063

---------------------
BASIS SET INFORMATION
---------------------
There are 3 groups of distinct atoms

 Group   1 Type P   : 10s7p1d contracted to 4s3p1d pattern {5311/511/1}
 Group   2 Type C   : 7s4p1d contracted to 3s2p1d pattern {511/31/1}
 Group   3 Type H   : 4s1p contracted to 2s1p pattern {31/1}

Atom   0P    basis set group =>   1
Atom   1C    basis set group =>   2
Atom   2H    basis set group =>   3
Atom   3H    basis set group =>   3
Atom   4H    basis set group =>   3
Atom   5C    basis set group =>   2
Atom   6H    basis set group =>   3
Atom   7H    basis set group =>   3
Atom   8H    basis set group =>   3
Atom   9C    basis set group =>   2
Atom  10H    basis set group =>   3
Atom  11H    basis set group =>   3
Atom  12H    basis set group =>   3
---------------------------------
AUXILIARY/J BASIS SET INFORMATION
---------------------------------
There are 3 groups of distinct atoms

 Group   1 Type P   : 14s5p5d2f1g contracted to 8s4p3d1f1g pattern {71111111/2111/311/2/1}
 Group   2 Type C   : 12s5p4d2f1g contracted to 6s4p3d1f1g pattern {711111/2111/211/2/1}
 Group   3 Type H   : 5s2p1d contracted to 3s1p1d pattern {311/2/1}

Atom   0P    basis set group =>   1
Atom   1C    basis set group =>   2
Atom   2H    basis set group =>   3
Atom   3H    basis set group =>   3
Atom   4H    basis set group =>   3
Atom   5C    basis set group =>   2
Atom   6H    basis set group =>   3
Atom   7H    basis set group =>   3
Atom   8H    basis set group =>   3
Atom   9C    basis set group =>   2
Atom  10H    basis set group =>   3
Atom  11H    basis set group =>   3
Atom  12H    basis set group =>   3


           ************************************************************
           *        Program running with 32 parallel MPI-processes    *
           *              working on a common directory               *
           ************************************************************
------------------------------------------------------------------------------
                             ORCA STARTUP CALCULATIONS
                           -- RI-GTO INTEGRALS CHOSEN --
------------------------------------------------------------------------------
------------------------------------------------------------------------------
                   ___                                                        
                  /   \      - P O W E R E D   B Y -                         
                 /     \                                                     
                 |  |  |   _    _      __       _____    __    __             
                 |  |  |  | |  | |    /  \     |  _  \  |  |  /  |          
                  \  \/   | |  | |   /    \    | | | |  |  | /  /          
                 / \  \   | |__| |  /  /\  \   | |_| |  |  |/  /          
                |  |  |   |  __  | /  /__\  \  |    /   |      \           
                |  |  |   | |  | | |   __   |  |    \   |  |\   \          
                \     /   | |  | | |  |  |  |  | |\  \  |  | \   \       
                 \___/    |_|  |_| |__|  |__|  |_| \__\ |__|  \__/        
                                                                              
                      - O R C A' S   B I G   F R I E N D -                    
                                      &                                       
                       - I N T E G R A L  F E E D E R -                       
                                                                              
 v1 FN, 2020, v2 2021, v3 2022-2024                                           
------------------------------------------------------------------------------


----------------------
SHARK INTEGRAL PACKAGE
----------------------

Number of atoms                             ...     13
Number of basis functions                   ...    105
Number of shells                            ...     53
Maximum angular momentum                    ...      2
Integral batch strategy                     ... SHARK/LIBINT Hybrid
RI-J (if used) integral strategy            ... SPLIT-RIJ (Revised 2003 algorithm where possible)
Printlevel                                  ...      1
Contraction scheme used                     ... SEGMENTED contraction
Prescreening option                         ... SCHWARTZ
   Thresh                                   ... 2.500e-11
   Tcut                                     ... 2.500e-12
   Tpresel                                  ... 2.500e-12 
Coulomb Range Separation                    ... NOT USED
Exchange Range Separation                   ... Long Range
   Mu parameter                             ... 3.000e-01
   Scaling (regular/separated)              ... 1.670e-01 8.330e-01
Robust (split-)RI terms used:
  metric    (central integrals)             ... YES
  density   (r.h.s.  integrals)             ... YES
  potential (l.h.s.  integrals)             ... YES
Multipole approximations                    ... NOT USED
Finite Nucleus Model                        ... NOT USED
CABS basis                                  ... NOT available
Auxiliary Coulomb fitting basis             ... AVAILABLE
   # of basis functions in Aux-J            ...    297
   # of shells in Aux-J                     ...    107
   Maximum angular momentum in Aux-J        ...      4
Auxiliary J/K fitting basis                 ... NOT available
Auxiliary Correlation fitting basis         ... NOT available
Auxiliary 'external' fitting basis          ... NOT available

Checking pre-screening integrals            ... done (  0.0 sec) Dimension = 53
   => SHARK Basis and OBASIS are compatible. Storing Pre-screening
Shell pair information
Shell pair cut-off parameter TPreSel        ...   2.5e-12
Total number of shell pairs                 ...      1431
Shell pairs after pre-screening             ...      1416
Total number of primitive shell pairs       ...      5039
Primitive shell pairs kept                  ...      3947
          la=0 lb=0:    490 shell pairs
          la=1 lb=0:    552 shell pairs
          la=1 lb=1:    168 shell pairs
          la=2 lb=0:    124 shell pairs
          la=2 lb=1:     72 shell pairs
          la=2 lb=2:     10 shell pairs

Checking whether 4 symmetric matrices of dimension 105 fit in memory
:Max Core in MB      =   4096.00
 MB in use           =      5.10
 MB left             =   4090.90
 MB needed           =      0.17
 Data fit in memory  = YES
Calculating RI/J V-Matrix + Cholesky decomp.... done (  0.1 sec)
Calculating Nuclear repulsion               ... done (  0.0 sec) ENN=    176.160339593877 Eh

Diagonalization of the overlap matrix:
Smallest eigenvalue                        ... 2.957e-03
Time for diagonalization                   ...    0.025 sec
Threshold for overlap eigenvalues          ... 1.000e-07
Number of eigenvalues below threshold      ... 0
Time for construction of square roots      ...    0.003 sec
Total time needed                          ...    0.031 sec

-------------------
DFT GRID GENERATION
-------------------

General Integration Accuracy     IntAcc      ... 4.959
Radial Grid Type                 RadialGrid  ... OptM3 with GC (2021)
Angular Grid (max. ang.)         AngularGrid ... 6 (Lebedev-590)
Angular grid pruning method      GridPruning ... 4 (adaptive)
Weight generation scheme         WeightScheme... mBecke (2022)
Basis function cutoff            BFCut       ... 1.0000e-11
Integration weight cutoff        WCut        ... 1.0000e-14
Partially contracted basis set               ... off
Rotationally invariant grid construction     ... off
Angular grids for H and He will be reduced by one unit

Total number of grid points                  ...   138238
Total number of batches                      ...     2166
Average number of points per batch           ...       63
Average number of grid points per atom       ...    10634

--------------------
COSX GRID GENERATION
--------------------

GRIDX 1
-------
General Integration Accuracy     IntAcc      ... 4.020
Radial Grid Type                 RadialGrid  ... OptM3 with GC (2021)
Angular Grid (max. ang.)         AngularGrid ... 2 (Lebedev-110)
Angular grid pruning method      GridPruning ... 4 (adaptive)
Weight generation scheme         WeightScheme... mBecke (2022)
Basis function cutoff            BFCut       ... 1.0000e-11
Integration weight cutoff        WCut        ... 1.0000e-14
Partially contracted basis set               ... on
Rotationally invariant grid construction     ... off
Angular grids for H and He will be reduced by one unit

Total number of grid points                  ...    14350
Total number of batches                      ...      117
Average number of points per batch           ...      122
Average number of grid points per atom       ...     1104
UseSFitting                                  ... on

GRIDX 2
-------
General Integration Accuracy     IntAcc      ... 4.338
Radial Grid Type                 RadialGrid  ... OptM3 with GC (2021)
Angular Grid (max. ang.)         AngularGrid ... 3 (Lebedev-194)
Angular grid pruning method      GridPruning ... 4 (adaptive)
Weight generation scheme         WeightScheme... mBecke (2022)
Basis function cutoff            BFCut       ... 1.0000e-11
Integration weight cutoff        WCut        ... 1.0000e-14
Partially contracted basis set               ... on
Rotationally invariant grid construction     ... off
Angular grids for H and He will be reduced by one unit

Total number of grid points                  ...    31901
Total number of batches                      ...      256
Average number of points per batch           ...      124
Average number of grid points per atom       ...     2454
UseSFitting                                  ... on

GRIDX 3
-------
General Integration Accuracy     IntAcc      ... 4.871
Radial Grid Type                 RadialGrid  ... OptM3 with GC (2021)
Angular Grid (max. ang.)         AngularGrid ... 4 (Lebedev-302)
Angular grid pruning method      GridPruning ... 4 (adaptive)
Weight generation scheme         WeightScheme... mBecke (2022)
Basis function cutoff            BFCut       ... 1.0000e-11
Integration weight cutoff        WCut        ... 1.0000e-14
Partially contracted basis set               ... on
Rotationally invariant grid construction     ... off
Angular grids for H and He will be reduced by one unit

Total number of grid points                  ...    63845
Total number of batches                      ...      505
Average number of points per batch           ...      126
Average number of grid points per atom       ...     4911
UseSFitting                                  ... on
Grids setup in   1.3 sec
Initializing property integral containers    ... done (  0.0 sec)

SHARK setup successfully completed in   1.5 seconds

Maximum memory used throughout the entire STARTUP-calculation: 28.8 MB


           ************************************************************
           *        Program running with 32 parallel MPI-processes    *
           *              working on a common directory               *
           ************************************************************
-------------------------------------------------------------------------------
                                 ORCA GUESS
                   Start orbitals & Density for SCF / CASSCF
-------------------------------------------------------------------------------

------------
SCF SETTINGS
------------
Hamiltonian:
 Density Functional     Method          .... DFT(GTOs)
 Exchange Functional    Exchange        .... WB97X-V
 Correlation Functional Correlation     .... WB97X-V
 Gradients option       PostSCFGGA      .... off
 Hybrid DFT is turned on
   Fraction HF Exchange ScalHFX         ....  0.167000
   Scaling of DF-GGA-X  ScalDFX         ....  0.000000
   Scaling of DF-GGA-C  ScalDFC         ....  1.000000
   Scaling of DF-LDA-C  ScalLDAC        ....  1.000000
   Perturbative correction              ....  0.000000
 Long-range corrected/Screened/Range-Separated Hybrid DFT is turned on
   Amount of maximum screened exact exchange              ....  0.833000
   Range separation parameter mu (erf(mu*r12)/r12)        ....  0.300000
 RI-approximation to the Coulomb term is turned on
   Number of AuxJ basis functions       .... 297
   RIJ-COSX (HFX calculated with COS-X)).... on


General Settings:
 Integral files         IntName         .... TPhP_pme3_opt
 Hartree-Fock type      HFTyp           .... RHF
 Total Charge           Charge          ....    0
 Multiplicity           Mult            ....    1
 Number of Electrons    NEL             ....   42
 Basis Dimension        Dim             ....  105
 Nuclear Repulsion      ENuc            ....    176.1603395939 Eh

Convergence Acceleration:
 AO-DIIS                CNVDIIS         .... on
   Start iteration      DIISMaxIt       ....    12
   Startup error        DIISStart       ....  0.200000
   # of expansion vecs  DIISMaxEq       ....     5
   Bias factor          DIISBfac        ....   1.050
   Max. coefficient     DIISMaxC        ....  10.000
 MO-DIIS                CNVKDIIS        .... off
 Trust-Rad. Augm. Hess. CNVTRAH         .... auto
   Auto Start mean grad. ratio tolernc. ....  1.125000
   Auto Start start iteration           ....    50
   Auto Start num. interpolation iter.  ....    10
   Max. Number of Micro iterations      ....    24
   Max. Number of Macro iterations      .... Maxiter - #DIIS iter
   Number of Davidson start vectors     ....     2
   Converg. threshold    (grad. norm)   ....   1.000e-05
   Grad. Scal. Fac. for Micro threshold ....   0.100
   Minimum threshold for Micro iter.    ....   1.000e-02
   NR start threshold (gradient norm)   ....   1.000e-04
   Initial trust radius                 ....   0.400
   Minimum AH scaling param. (alpha)    ....   1.000
   Maximum AH scaling param. (alpha)    .... 1000.000
   Quad. conv. algorithm                .... NR
   White noise on init. David. guess    .... on
   Maximum white noise                  ....   0.010
   Pseudo random numbers                .... off
   Inactive MOs                         .... canonical
   Orbital update algorithm             .... Taylor
   Preconditioner                       .... Diag
   Full preconditioner red. dimension   ....   250
 SOSCF                 CNVSOSCF           .... on
   Start iteration     SOSCFMaxIt         ....   150
   Startup grad/error  SOSCFStart         ....  0.003300
   Hessian update      SOSCFHessUp        .... L-BFGS
   Autom. constraints  SOSCFAutoConstrain .... off
 Level Shifting         CNVShift        .... on
   Level shift para.    LevelShift      ....    0.2500
   Turn off err/grad.   ShiftErr        ....    0.0010
 Zerner damping         CNVZerner       .... off
 Static damping         CNVDamp         .... on
   Fraction old density DampFac         ....    0.7000
   Max. Damping (<1)    DampMax         ....    0.9800
   Min. Damping (>=0)   DampMin         ....    0.0000
   Turn off err/grad.   DampErr         ....    0.1000

SCF Procedure:
 Maximum # iterations   MaxIter         ....   125
 SCF integral mode      SCFMode         .... Direct
   Integral package                     .... SHARK and LIBINT hybrid scheme
 Reset frequency        DirectResetFreq ....    20
 Integral Threshold     Thresh          ....  2.500e-11 Eh
 Primitive CutOff       TCut            ....  2.500e-12 Eh

Convergence Tolerance:
 Convergence Check Mode ConvCheckMode   .... Total+1el-Energy
 Convergence forced     ConvForced      .... 0
 Energy Change          TolE            ....  1.000e-08 Eh
 1-El. energy change                    ....  1.000e-05 Eh
 Orbital Gradient       TolG            ....  1.000e-05
 Orbital Rotation angle TolX            ....  1.000e-05
 DIIS Error             TolErr          ....  5.000e-07

------------------------------
INITIAL GUESS: MODEL POTENTIAL
------------------------------
Loading Hartree-Fock densities                     ... done
Calculating cut-offs                               ... done
Initializing the effective Hamiltonian             ... done
Setting up the integral package (SHARK)            ... done
Starting the Coulomb interaction                   ... done (   0.0 sec)
Making the grid                                    ... done (   0.1 sec)
Mapping shells                                     ... done
Starting the XC term evaluation                    ... done (   0.0 sec)
  promolecular density results
     # of electrons  =     41.996489423
     EX              =    -28.297507551
     EC              =     -1.792090430
     EX+EC           =    -30.089597982
Transforming the Hamiltonian                       ... done (   0.0 sec)
Diagonalizing the Hamiltonian                      ... done (   0.0 sec)
Back transforming the eigenvectors                 ... done (   0.0 sec)
Now organizing SCF variables                       ... done
                      ------------------
                      INITIAL GUESS DONE (   0.2 sec)
                      ------------------
             **** ENERGY FILE WAS UPDATED (TPhP_pme3_opt.en.tmp) ****
Finished Guess after   0.5 sec
Maximum memory used throughout the entire GUESS-calculation: 7.4 MB


           ************************************************************
           *        Program running with 32 parallel MPI-processes    *
           *              working on a common directory               *
           ************************************************************

-------------------------------------------------------------------------------------------
                                      ORCA LEAN-SCF
                              memory conserving SCF solver
-------------------------------------------------------------------------------------------

----------------------------------------D-I-I-S--------------------------------------------
Iteration    Energy (Eh)           Delta-E    RMSDP     MaxDP     DIISErr   Damp  Time(sec)
-------------------------------------------------------------------------------------------
               ***  Starting incremental Fock matrix formation  ***
    1    -460.9268864398608230     0.00e+00  1.41e-02  1.05e-01  1.36e-01  0.700   0.3
    2    -460.9454843901725098    -1.86e-02  1.20e-02  9.53e-02  8.95e-02  0.700   0.2
                               ***Turning on AO-DIIS***
    3    -460.9561587595363790    -1.07e-02  8.12e-03  6.71e-02  5.73e-02  0.700   0.2
    4    -460.9628577199961228    -6.70e-03  1.99e-02  1.62e-01  3.92e-02  0.000   0.2
                              *** Initializing SOSCF ***
---------------------------------------S-O-S-C-F--------------------------------------
Iteration    Energy (Eh)           Delta-E    RMSDP     MaxDP     MaxGrad    Time(sec)
--------------------------------------------------------------------------------------
    5    -460.9778619698780631    -1.50e-02  2.10e-03  1.24e-02  2.00e-03     0.2
               *** Restarting incremental Fock matrix formation ***
    6    -460.9779154838048498    -5.35e-05  1.43e-03  8.47e-03  6.24e-04     0.2
    7    -460.9779244110279706    -8.93e-06  5.59e-04  2.27e-03  2.02e-04     0.2
    8    -460.9779253390478289    -9.28e-07  4.75e-05  2.46e-04  7.20e-05     0.2
    9    -460.9779254225259137    -8.35e-08  1.58e-05  1.02e-04  8.82e-06     0.2
   10    -460.9779254230530796    -5.27e-10  4.12e-06  2.39e-05  3.22e-06     0.2
                 **** Energy Check signals convergence ****

               *****************************************************
               *                     SUCCESS                       *
               *           SCF CONVERGED AFTER  10 CYCLES          *
               *****************************************************

Recomputing exchange energy using gridx3       ... done (    0.213 sec)
Old exchange energy                            :    -12.368750474 Eh
New exchange energy                            :    -12.368749947 Eh
Exchange energy change after final integration :      0.000000527 Eh
Total energy after final integration           :   -460.977924900 Eh
             **** ENERGY FILE WAS UPDATED (TPhP_pme3_opt.en.tmp) ****

----------------
TOTAL SCF ENERGY
----------------

Total Energy       :       -460.97792490021590 Eh          -12543.84705 eV

Components:
Nuclear Repulsion  :        176.16033959387664 Eh            4793.56654 eV
Electronic Energy  :       -637.13826502070913 Eh          -17337.41361 eV
One Electron Energy:       -980.90117440309189 Eh          -26691.67793 eV
Two Electron Energy:        343.76290938238276 Eh            9354.26433 eV

Virial components:
Potential Energy   :       -919.05444859662350 Eh          -25008.74297 eV
Kinetic Energy     :        458.07652369640761 Eh           12464.89591 eV
Virial Ratio       :          2.00633387884713

DFT components:
N(Alpha)           :       21.000000641380 electrons
N(Beta)            :       21.000000641380 electrons
N(Total)           :       42.000001282760 electrons
E(X)               :      -28.709772517194 Eh       
E(C)               :       -1.810624753179 Eh       
E(XC)              :      -30.520397270373 Eh       

---------------
SCF CONVERGENCE
---------------

  Last Energy change         ...    5.2717e-10  Tolerance :   1.0000e-08
  Last MAX-Density change    ...    2.3931e-05  Tolerance :   1.0000e-07
  Last RMS-Density change    ...    4.1172e-06  Tolerance :   5.0000e-09
  Last DIIS Error            ...    1.9992e-03  Tolerance :   5.0000e-07
  Last Orbital Gradient      ...    3.2154e-06  Tolerance :   1.0000e-05
  Last Orbital Rotation      ...    8.7953e-06  Tolerance :   1.0000e-05


----------------
ORBITAL ENERGIES
----------------

  NO   OCC          E(Eh)            E(eV) 
   0   2.0000     -77.051447     -2096.6765 
   1   2.0000     -10.285951      -279.8950 
   2   2.0000     -10.285895      -279.8934 
   3   2.0000     -10.285754      -279.8896 
   4   2.0000      -6.647313      -180.8826 
   5   2.0000      -4.804977      -130.7501 
   6   2.0000      -4.804975      -130.7500 
   7   2.0000      -4.801308      -130.6502 
   8   2.0000      -0.888280       -24.1713 
   9   2.0000      -0.805932       -21.9305 
  10   2.0000      -0.805861       -21.9286 
  11   2.0000      -0.643462       -17.5095 
  12   2.0000      -0.549156       -14.9433 
  13   2.0000      -0.534217       -14.5368 
  14   2.0000      -0.533993       -14.5307 
  15   2.0000      -0.501245       -13.6396 
  16   2.0000      -0.501110       -13.6359 
  17   2.0000      -0.489943       -13.3320 
  18   2.0000      -0.422050       -11.4846 
  19   2.0000      -0.421972       -11.4824 
  20   2.0000      -0.323295        -8.7973 
  21   0.0000       0.132928         3.6172 
  22   0.0000       0.146186         3.9779 
  23   0.0000       0.146269         3.9802 
  24   0.0000       0.176027         4.7899 
  25   0.0000       0.197482         5.3738 
  26   0.0000       0.197623         5.3776 
  27   0.0000       0.218904         5.9567 
  28   0.0000       0.219303         5.9675 
  29   0.0000       0.254405         6.9227 
  30   0.0000       0.254986         6.9385 
  31   0.0000       0.257414         7.0046 
*Only the first 10 virtual orbitals were printed.

                    ********************************
                    * MULLIKEN POPULATION ANALYSIS *
                    ********************************

-----------------------
MULLIKEN ATOMIC CHARGES
-----------------------
   0 P :    0.102542
   1 C :   -0.194012
   2 H :    0.058935
   3 H :    0.042004
   4 H :    0.058867
   5 C :   -0.193939
   6 H :    0.041967
   7 H :    0.058850
   8 H :    0.058802
   9 C :   -0.193286
  10 H :    0.059047
  11 H :    0.041869
  12 H :    0.058354
Sum of atomic charges:    0.0000000

--------------------------------
MULLIKEN REDUCED ORBITAL CHARGES
--------------------------------
  0 P s       :     5.791610  s :     5.791610
      pz      :     3.371046  p :     8.928701
      px      :     2.772938
      py      :     2.784717
      dz2     :     0.017936  d :     0.177146
      dxz     :     0.047121
      dyz     :     0.032885
      dx2y2   :     0.047521
      dxy     :     0.031684

  1 C s       :     3.092828  s :     3.092828
      pz      :     1.020092  p :     3.080050
      px      :     1.027529
      py      :     1.032429
      dz2     :     0.006862  d :     0.021135
      dxz     :     0.003926
      dyz     :     0.001937
      dx2y2   :     0.005359
      dxy     :     0.003051

  2 H s       :     0.917619  s :     0.917619
      pz      :     0.004494  p :     0.023447
      px      :     0.004497
      py      :     0.014455

  3 H s       :     0.934794  s :     0.934794
      pz      :     0.014048  p :     0.023203
      px      :     0.004308
      py      :     0.004847

  4 H s       :     0.917681  s :     0.917681
      pz      :     0.006009  p :     0.023452
      px      :     0.011011
      py      :     0.006433

  5 C s       :     3.092824  s :     3.092824
      pz      :     1.020021  p :     3.079980
      px      :     1.034407
      py      :     1.025552
      dz2     :     0.007031  d :     0.021135
      dxz     :     0.002586
      dyz     :     0.003120
      dx2y2   :     0.003724
      dxy     :     0.004674

  6 H s       :     0.934833  s :     0.934833
      pz      :     0.014559  p :     0.023201
      px      :     0.004396
      py      :     0.004246

  7 H s       :     0.917699  s :     0.917699
      pz      :     0.005093  p :     0.023451
      px      :     0.012064
      py      :     0.006294

  8 H s       :     0.917748  s :     0.917748
      pz      :     0.006104  p :     0.023449
      px      :     0.010220
      py      :     0.007126

  9 C s       :     3.091994  s :     3.091994
      pz      :     1.019690  p :     3.080134
      px      :     1.028638
      py      :     1.031806
      dz2     :     0.007064  d :     0.021157
      dxz     :     0.003525
      dyz     :     0.002006
      dx2y2   :     0.005971
      dxy     :     0.002590

 10 H s       :     0.917505  s :     0.917505
      pz      :     0.004968  p :     0.023448
      px      :     0.012822
      py      :     0.005659

 11 H s       :     0.934916  s :     0.934916
      pz      :     0.013513  p :     0.023214
      px      :     0.004741
      py      :     0.004960

 12 H s       :     0.918127  s :     0.918127
      pz      :     0.004465  p :     0.023518
      px      :     0.004457
      py      :     0.014597



                     *******************************
                     * LOEWDIN POPULATION ANALYSIS *
                     *******************************

----------------------
LOEWDIN ATOMIC CHARGES
----------------------
   0 P :    0.430628
   1 C :   -0.217444
   2 H :    0.027841
   3 H :    0.018285
   4 H :    0.027833
   5 C :   -0.217462
   6 H :    0.018254
   7 H :    0.027831
   8 H :    0.027774
   9 C :   -0.217225
  10 H :    0.027854
  11 H :    0.018256
  12 H :    0.027574

-------------------------------
LOEWDIN REDUCED ORBITAL CHARGES
-------------------------------
  0 P s       :     5.317159  s :     5.317159
      pz      :     3.410877  p :     9.025206
      px      :     2.801201
      py      :     2.813128
      dz2     :     0.021723  d :     0.227007
      dxz     :     0.060656
      dyz     :     0.040560
      dx2y2   :     0.063296
      dxy     :     0.040773

  1 C s       :     2.904019  s :     2.904019
      pz      :     1.085012  p :     3.258651
      px      :     1.093843
      py      :     1.079796
      dz2     :     0.017759  d :     0.054774
      dxz     :     0.010303
      dyz     :     0.004762
      dx2y2   :     0.014122
      dxy     :     0.007829

  2 H s       :     0.905707  s :     0.905707
      pz      :     0.012214  p :     0.066452
      px      :     0.014074
      py      :     0.040165

  3 H s       :     0.914851  s :     0.914851
      pz      :     0.040422  p :     0.066864
      px      :     0.013351
      py      :     0.013091

  4 H s       :     0.905698  s :     0.905698
      pz      :     0.016214  p :     0.066469
      px      :     0.032774
      py      :     0.017481

  5 C s       :     2.904097  s :     2.904097
      pz      :     1.082048  p :     3.258602
      px      :     1.077652
      py      :     1.098902
      dz2     :     0.018334  d :     0.054762
      dxz     :     0.006423
      dyz     :     0.007907
      dx2y2   :     0.009932
      dxy     :     0.012166

  6 H s       :     0.914894  s :     0.914894
      pz      :     0.041164  p :     0.066852
      px      :     0.011755
      py      :     0.013933

  7 H s       :     0.905703  s :     0.905703
      pz      :     0.013503  p :     0.066465
      px      :     0.032924
      py      :     0.020039

  8 H s       :     0.905759  s :     0.905759
      pz      :     0.016225  p :     0.066467
      px      :     0.027805
      py      :     0.022437

  9 C s       :     2.903578  s :     2.903578
      pz      :     1.088837  p :     3.258798
      px      :     1.088524
      py      :     1.081438
      dz2     :     0.018294  d :     0.054849
      dxz     :     0.009288
      dyz     :     0.005007
      dx2y2   :     0.015648
      dxy     :     0.006612

 10 H s       :     0.905682  s :     0.905682
      pz      :     0.013837  p :     0.066463
      px      :     0.037118
      py      :     0.015508

 11 H s       :     0.914870  s :     0.914870
      pz      :     0.039718  p :     0.066873
      px      :     0.013687
      py      :     0.013468

 12 H s       :     0.905753  s :     0.905753
      pz      :     0.012566  p :     0.066673
      px      :     0.013295
      py      :     0.040811



                      *****************************
                      * MAYER POPULATION ANALYSIS *
                      *****************************

  NA   - Mulliken gross atomic population
  ZA   - Total nuclear charge
  QA   - Mulliken gross atomic charge
  VA   - Mayer's total valence
  BVA  - Mayer's bonded valence
  FA   - Mayer's free valence

  ATOM       NA         ZA         QA         VA         BVA        FA
  0 P     14.8975    15.0000     0.1025     3.0387     3.0387    -0.0000
  1 C      6.1940     6.0000    -0.1940     3.8839     3.8839    -0.0000
  2 H      0.9411     1.0000     0.0589     0.9853     0.9853    -0.0000
  3 H      0.9580     1.0000     0.0420     0.9915     0.9915     0.0000
  4 H      0.9411     1.0000     0.0589     0.9853     0.9853    -0.0000
  5 C      6.1939     6.0000    -0.1939     3.8840     3.8840     0.0000
  6 H      0.9580     1.0000     0.0420     0.9915     0.9915     0.0000
  7 H      0.9412     1.0000     0.0588     0.9852     0.9852    -0.0000
  8 H      0.9412     1.0000     0.0588     0.9852     0.9852     0.0000
  9 C      6.1933     6.0000    -0.1933     3.8840     3.8840     0.0000
 10 H      0.9410     1.0000     0.0590     0.9852     0.9852     0.0000
 11 H      0.9581     1.0000     0.0419     0.9916     0.9916     0.0000
 12 H      0.9416     1.0000     0.0584     0.9854     0.9854     0.0000

  Mayer bond orders larger than 0.100000
B(  0-P ,  1-C ) :   0.9823 B(  0-P ,  5-C ) :   0.9824 B(  0-P ,  9-C ) :   0.9824 
B(  1-C ,  2-H ) :   0.9736 B(  1-C ,  3-H ) :   0.9623 B(  1-C ,  4-H ) :   0.9736 
B(  5-C ,  6-H ) :   0.9623 B(  5-C ,  7-H ) :   0.9737 B(  5-C ,  8-H ) :   0.9736 
B(  9-C , 10-H ) :   0.9736 B(  9-C , 11-H ) :   0.9623 B(  9-C , 12-H ) :   0.9737 


-------
TIMINGS
-------

Total SCF time: 0 days 0 hours 0 min 2 sec 

Total time                  ....       2.899 sec
Sum of individual times     ....       2.650 sec  ( 91.4%)

SCF preparation             ....       0.267 sec  (  9.2%)
Fock matrix formation       ....       2.119 sec  ( 73.1%)
  Startup                   ....       0.016 sec  (  0.8% of F)
  Split-RI-J                ....       0.142 sec  (  6.7% of F)
  Chain of spheres X        ....       1.226 sec  ( 57.8% of F)
  XC integration            ....       0.611 sec  ( 28.9% of F)
    XC Preparation          ....       0.000 sec  (  0.0% of XC)
    Basis function eval.    ....       0.061 sec  ( 10.0% of XC)
    Density eval.           ....       0.027 sec  (  4.4% of XC)
    XC-Functional eval.     ....       0.047 sec  (  7.8% of XC)
    XC-Potential eval.      ....       0.033 sec  (  5.4% of XC)
Diagonalization             ....       0.000 sec  (  0.0%)
Density matrix formation    ....       0.059 sec  (  2.0%)
Total Energy calculation    ....       0.023 sec  (  0.8%)
Population analysis         ....       0.019 sec  (  0.6%)
Orbital Transformation      ....       0.020 sec  (  0.7%)
Orbital Orthonormalization  ....       0.000 sec  (  0.0%)
DIIS solution               ....       0.087 sec  (  3.0%)
SOSCF solution              ....       0.055 sec  (  1.9%)
Finished LeanSCF after   2.9 sec

Maximum memory used throughout the entire LEANSCF-calculation: 9.2 MB
------------------------------------------------------------------------------
                           ORCA ORBITAL LOCALIZATION
------------------------------------------------------------------------------

Input orbitals are from                  ... TPhP_pme3_opt.gbw
Output orbitals are to                   ... TPhP_pme3_opt.loc
Max. number of iterations                ... 128
Localizations seeded randomly            ... on
Convergence tolerance                    ... 1.000e-06
Threshold for strong local MOs           ... 9.500e-01
Threshold for bond MOs                   ... 8.500e-01
Operator                                 ... 0
Orbital range for localization           ... 5 to 20
Localization criterion                   ... NEW-BOYS
Doing the dipole integrals               ... o.k.
Initial value of the localization sum :   113.358013
ITERATION   0 : L=  146.2430479969 DL=  3.29e+01 (AVERGE_DL)=    0.5234901728 
ITERATION   1 : L=  148.4473879197 DL=  2.20e+00 (AVERGE_DL)=    0.1355341262 
ITERATION   2 : L=  148.4539336102 DL=  6.55e-03 (AVERGE_DL)=    0.0073856226 
ITERATION   3 : L=  148.4539428239 DL=  9.21e-06 (AVERGE_DL)=    0.0002770935 
ITERATION   4 : L=  148.4539428471 DL=  2.32e-08 (AVERGE_DL)=    0.0000139131 
LOCALIZATION SUM CONVERGED


--------------------------------------------------------------------------------
                    LOCALIZED MOLECULAR ORBITAL COMPOSITIONS
--------------------------------------------------------------------------------

The Mulliken populations for each LMO on each atom are computed
The LMO`s will be ordered according to atom index and type
  (A) Strongly localized MO`s have populations of >=0.950 on one atom
  (B) Two center bond orbitals have populations of >=0.850 on two atoms
  (C) Other MO`s are considered to be `delocalized`

FOUND  -   4 strongly local MO`s
       -  12 two center bond MO`s
       -   0 significantly delocalized MO`s

Rather strongly localized orbitals:
MO   8:   0P  -   1.029221
MO   7:   0P  -   1.000457
MO   6:   0P  -   1.000456
MO   5:   0P  -   0.999612
Bond-like localized orbitals:
MO  20:  12H  -   0.484377  and   9C  -   0.520977
MO  19:  11H  -   0.491279  and   9C  -   0.510776
MO  18:  10H  -   0.484021  and   9C  -   0.521382
MO  17:   9C  -   0.581027  and   0P  -   0.462397
MO  16:   8H  -   0.484162  and   5C  -   0.521265
MO  15:   7H  -   0.484140  and   5C  -   0.521282
MO  14:   6H  -   0.491257  and   5C  -   0.510805
MO  13:   5C  -   0.581068  and   0P  -   0.462351
MO  12:   4H  -   0.484116  and   1C  -   0.521281
MO  11:   3H  -   0.491241  and   1C  -   0.510826
MO  10:   2H  -   0.484087  and   1C  -   0.521324
MO   9:   1C  -   0.581058  and   0P  -   0.462347
Localized MO's were stored in: TPhP_pme3_opt.loc


-------------------------------------------------------------------------------
                          DFT DISPERSION CORRECTION                            
                                                                               
                                DFTD4 V3.4.0                                   
-------------------------------------------------------------------------------
The WB97X-D3BJ functional is recognized
Active option DFTDOPT                   ...         5   

-------------------------   ----------------
Dispersion correction           -0.019975719
-------------------------   ----------------


-------------------------   --------------------
FINAL SINGLE POINT ENERGY      -460.997900618839
-------------------------   --------------------



           ************************************************************
           *        Program running with 32 parallel MPI-processes    *
           *              working on a common directory               *
           ************************************************************
------------------------------------------------------------------------------
                         ORCA SCF GRADIENT CALCULATION
------------------------------------------------------------------------------

Nuc. rep. gradient        (SHARK) ... done (  0.0 sec)
HCore & Overlap gradient  (SHARK) ... done (  0.0 sec)
Split-RIJ-J gradient      (SHARK) ... done (  0.1 sec)
COSX-gradient                     ... done (  0.5 sec)
XC gradient                       ... done (  0.1 sec)
Dispersion correction             ... done (  0.0 sec)

-------------------
DISPERSION GRADIENT
-------------------

   1   P   :    0.000068206    0.000133488   -0.000816240
   2   C   :   -0.000940366    0.000448600    0.000104799
   3   H   :   -0.000206948    0.000127631    0.000021249
   4   H   :   -0.000246449    0.000096563    0.000130246
   5   H   :   -0.000229277    0.000083281    0.000012332
   6   C   :    0.000060582   -0.001044084   -0.000054270
   7   H   :    0.000006731   -0.000280896    0.000090005
   8   H   :    0.000039822   -0.000240377   -0.000017939
   9   H   :   -0.000010480   -0.000243091   -0.000022491
  10   C   :    0.000852826    0.000542920    0.000269993
  11   H   :    0.000213027    0.000106805    0.000052648
  12   H   :    0.000207242    0.000120068    0.000172070
  13   H   :    0.000185085    0.000149091    0.000057598

Difference to translation invariance:
           :    0.0000000000   -0.0000000000    0.0000000000

Difference to rotation invariance:
           :    0.0000000000    0.0000000000    0.0000000000

Norm of the Dispersion gradient    ...    0.0021438190
RMS gradient                       ...    0.0003432858
MAX gradient                       ...    0.0010440839

------------------
CARTESIAN GRADIENT
------------------

   1   P   :    0.000844261    0.001843831   -0.009842227
   2   C   :   -0.001241118    0.000259368    0.001782422
   3   H   :    0.001398391    0.005637370   -0.000491754
   4   H   :    0.001553793   -0.001672402    0.004352081
   5   H   :   -0.003383043   -0.004005138   -0.002401875
   6   C   :    0.000006959   -0.001510777    0.001612099
   7   H   :   -0.000512385    0.001347444    0.004701325
   8   H   :    0.005593873   -0.000753715   -0.001115640
   9   H   :   -0.005191244   -0.001305766   -0.002079641
  10   C   :    0.000908639    0.000794788    0.001873866
  11   H   :    0.004172534   -0.003556515   -0.001798363
  12   H   :   -0.002125791   -0.001709046    0.003962112
  13   H   :   -0.002024871    0.004630559   -0.000554406

Difference to translation invariance:
           :    0.0000000000    0.0000000000    0.0000000000

Difference to rotation invariance:
           :   -0.0000139204   -0.0000184805   -0.0000296434

Norm of the Cartesian gradient     ...    0.0194819192
RMS gradient                       ...    0.0031196038
MAX gradient                       ...    0.0098422273

-------
TIMINGS
-------

Total SCF gradient time     ....        0.724 sec

Densities                   ....       0.000 sec  (  0.0%)
One electron gradient       ....       0.005 sec  (  0.7%)
RI-J Coulomb gradient       ....       0.082 sec  ( 11.3%)
COSX gradient               ....       0.500 sec  ( 69.1%)
XC gradient                 ....       0.094 sec  ( 13.0%)

Maximum memory used throughout the entire SCFGRAD-calculation: 27.3 MB
------------------------------------------------------------------------------
                         ORCA GEOMETRY RELAXATION STEP
------------------------------------------------------------------------------

Reading the OPT-File                    .... done
Getting information on internals        .... done
Copying old internal coords+grads       .... done
Making the new internal coordinates     .... (2022 redundants) done
Validating the new internal coordinates .... (2022 redundants) done
Calculating the B-matrix                .... done
Calculating the G,G- and P matrices     .... done
Transforming gradient to internals      .... done
Projecting the internal gradient        .... done
Number of atoms                         ....  13
Number of internal coordinates          ....  48
Current Energy                          ....  -460.997900619 Eh
Current gradient norm                   ....     0.019481919 Eh/bohr
Maximum allowed component of the step   ....  0.300
Current trust radius                    ....  0.300
Evaluating the initial hessian          ....  (Almloef) done
Projecting the Hessian                  .... done
Forming the augmented Hessian           .... done
Diagonalizing the augmented Hessian     .... done
Last element of RFO vector              ....  0.997510476
Lowest eigenvalues of augmented Hessian:
 -0.001280648  0.010000000  0.010000000  0.010000269  0.123984705
Length of the computed step             ....  0.070694442
The final length of the internal step   ....  0.070694442
Converting the step to Cartesian space:
 Initial RMS(Int)=    0.0102038637
Transforming coordinates:
 Iter   0:  RMS(Cart)=    0.0197247263 RMS(Int)=    0.0101958840
done
Storing new coordinates                 .... done

                                .--------------------.
          ----------------------|Geometry convergence|-------------------------
          Item                value                   Tolerance       Converged
          ---------------------------------------------------------------------
          RMS gradient        0.0027745907            0.0001000000      NO
          MAX gradient        0.0055100416            0.0003000000      NO
          RMS step            0.0102038637            0.0020000000      NO
          MAX step            0.0163816544            0.0040000000      NO
          -------------------------------------------------------------------------
          ........................................................
          Max(Bonds)      0.0087      Max(Angles)    0.90
          Max(Dihed)        0.83      Max(Improp)    0.00
          ---------------------------------------------------------------------

The optimization has not yet converged - more geometry cycles are needed


    ---------------------------------------------------------------------------
                         Redundant Internal Coordinates
                            (Angstroem and degrees)

        Definition                    Value    dE/dq     Step     New-Value
    ----------------------------------------------------------------------------
     1. B(C   1,P   0)                1.8651  0.003009 -0.0043    1.8608   
     2. B(H   2,C   1)                1.1096  0.005510 -0.0087    1.1009   
     3. B(H   3,C   1)                1.1100  0.004700 -0.0074    1.1026   
     4. B(H   4,C   1)                1.1095  0.005446 -0.0086    1.1009   
     5. B(C   5,P   0)                1.8656  0.003175 -0.0046    1.8610   
     6. B(H   6,C   5)                1.1100  0.004719 -0.0074    1.1026   
     7. B(H   7,C   5)                1.1095  0.005449 -0.0086    1.1009   
     8. B(H   8,C   5)                1.1095  0.005430 -0.0085    1.1010   
     9. B(C   9,P   0)                1.8648  0.002863 -0.0041    1.8607   
    10. B(H  10,C   9)                1.1095  0.005448 -0.0086    1.1009   
    11. B(H  11,C   9)                1.1099  0.004610 -0.0073    1.1026   
    12. B(H  12,C   9)                1.1083  0.004671 -0.0073    1.1010   
    13. A(C   1,P   0,C   5)           97.68 -0.002362    0.86     98.53   
    14. A(C   5,P   0,C   9)           97.63 -0.002518    0.90     98.53   
    15. A(C   1,P   0,C   9)           97.63 -0.002422    0.88     98.51   
    16. A(H   2,C   1,H   4)          109.13  0.003034   -0.65    108.48   
    17. A(H   3,C   1,H   4)          109.13  0.000543   -0.10    109.03   
    18. A(P   0,C   1,H   2)          109.30 -0.001120    0.22    109.52   
    19. A(P   0,C   1,H   3)          110.78 -0.002140    0.41    111.19   
    20. A(P   0,C   1,H   4)          109.32 -0.001423    0.23    109.54   
    21. A(H   2,C   1,H   3)          109.15  0.001195   -0.12    109.03   
    22. A(H   7,C   5,H   8)          109.11  0.002971   -0.64    108.47   
    23. A(H   6,C   5,H   8)          109.11  0.000498   -0.09    109.02   
    24. A(P   0,C   5,H   8)          109.35 -0.001387    0.22    109.57   
    25. A(P   0,C   5,H   7)          109.34 -0.001047    0.21    109.54   
    26. A(P   0,C   5,H   6)          110.79 -0.002072    0.40    111.19   
    27. A(H   6,C   5,H   7)          109.12  0.001128   -0.11    109.01   
    28. A(H  11,C   9,H  12)          109.02  0.000411   -0.05    108.97   
    29. A(H  10,C   9,H  12)          109.18  0.003098   -0.67    108.51   
    30. A(P   0,C   9,H  12)          109.25 -0.001500    0.24    109.50   
    31. A(H  10,C   9,H  11)          109.20  0.001227   -0.15    109.05   
    32. A(P   0,C   9,H  11)          110.81 -0.002035    0.40    111.20   
    33. A(P   0,C   9,H  10)          109.36 -0.001114    0.21    109.57   
    34. D(H   2,C   1,P   0,C   5)    169.79 -0.001993    0.67    170.46   
    35. D(H   3,C   1,P   0,C   5)     49.48 -0.001410    0.42     49.90   
    36. D(H   4,C   1,P   0,C   5)    -70.82  0.000177    0.14    -70.68   
    37. D(H   2,C   1,P   0,C   9)     70.98  0.001328   -0.53     70.45   
    38. D(H   3,C   1,P   0,C   9)    -49.33  0.001911   -0.77    -50.10   
    39. D(H   6,C   5,P   0,C   9)     49.39 -0.001864    0.77     50.17   
    40. D(H   6,C   5,P   0,C   1)    -49.43  0.001374   -0.40    -49.82   
    41. D(H   8,C   5,P   0,C   1)     70.87 -0.000205   -0.12     70.75   
    42. D(H   7,C   5,P   0,C   9)    -70.91 -0.001286    0.53    -70.38   
    43. D(H   7,C   5,P   0,C   1)   -169.73  0.001952   -0.64   -170.37   
    44. D(H  11,C   9,P   0,C   5)    -49.11  0.001781   -0.83    -49.94   
    45. D(H  11,C   9,P   0,C   1)     49.74 -0.001403    0.33     50.07   
    46. D(H  10,C   9,P   0,C   5)     71.31  0.001302   -0.62     70.69   
    47. D(H  12,C   9,P   0,C   1)    -70.40  0.000322   -0.01    -70.41   
    48. D(H  10,C   9,P   0,C   1)    170.16 -0.001883    0.53    170.69   
    ----------------------------------------------------------------------------

Geometry step timings:
Preparation and reading OPT file:      0.000 s ( 2.117 %)
Internal coordinates            :      0.000 s ( 0.215 %)
B/P matrices and projection     :      0.002 s (14.763 %)
Hessian update/contruction      :      0.002 s (19.382 %)
Making the step                 :      0.005 s (47.747 %)
Converting the step to Cartesian:      0.000 s ( 0.534 %)
Storing new data                :      0.001 s ( 6.698 %)
Checking convergence            :      0.000 s ( 0.206 %)
Final printing                  :      0.001 s ( 8.337 %)
Total time                      :      0.011 s

Time for energy+gradient        :      7.446 s
Time for complete geometry iter :      9.057 s

         *************************************************************
         *                GEOMETRY OPTIMIZATION CYCLE   2            *
         *************************************************************
---------------------------------
CARTESIAN COORDINATES (ANGSTROEM)
---------------------------------
  P      0.791945   -4.337903    0.147819
  C     -0.737532   -3.754436    1.032616
  H     -0.837145   -2.664318    0.915200
  H     -0.693596   -3.997688    2.107142
  H     -1.624228   -4.235433    0.591610
  C      0.827165   -6.087092    0.782213
  H      0.725276   -6.115035    1.879739
  H      1.778572   -6.562750    0.498204
  H      0.002403   -6.659766    0.330629
  C      2.066145   -3.605162    1.288725
  H      3.063726   -3.985454    1.020069
  H      1.854414   -3.861328    2.340055
  H      2.069135   -2.509434    1.180968

----------------------------
CARTESIAN COORDINATES (A.U.)
----------------------------
  NO LB      ZA    FRAG     MASS         X           Y           Z
   0 P    15.0000    0    30.974    1.496559   -8.197449    0.279337
   1 C     6.0000    0    12.011   -1.393733   -7.094855    1.951361
   2 H     1.0000    0     1.008   -1.581975   -5.034831    1.729477
   3 H     1.0000    0     1.008   -1.310706   -7.554536    3.981922
   4 H     1.0000    0     1.008   -3.069346   -8.003808    1.117982
   5 C     6.0000    0    12.011    1.563115  -11.502938    1.478169
   6 H     1.0000    0     1.008    1.370573  -11.555741    3.552193
   7 H     1.0000    0     1.008    3.361014  -12.401801    0.941468
   8 H     1.0000    0     1.008    0.004542  -12.585134    0.624799
   9 C     6.0000    0    12.011    3.904447   -6.812768    2.435337
  10 H     1.0000    0     1.008    5.789603   -7.531417    1.927651
  11 H     1.0000    0     1.008    3.504335   -7.296853    4.422063
  12 H     1.0000    0     1.008    3.910098   -4.742143    2.231707

--------------------------------
INTERNAL COORDINATES (ANGSTROEM)
--------------------------------
 P      0   0   0     0.000000000000     0.00000000     0.00000000
 C      1   0   0     1.860805956638     0.00000000     0.00000000
 H      2   1   0     1.100938825745   109.51978581     0.00000000
 H      2   1   3     1.102592306218   111.18980546   239.44382803
 H      2   1   3     1.100941959838   109.54405694   118.86491843
 C      1   2   3     1.861010576549    98.52161428   170.46057326
 H      6   1   2     1.102599554459   111.18554737   310.17337096
 H      6   1   2     1.100948246972   109.54217931   189.62813374
 H      6   1   2     1.100961110164   109.56667568    70.74910775
 C      1   2   3     1.860688312353    98.50143577    70.44737343
 H     10   1   2     1.100893617152   109.56452819   170.69714776
 H     10   1   2     1.102608553749   111.20194213    50.06999546
 H     10   1   2     1.101017817171   109.49708022   289.59219621

---------------------------
INTERNAL COORDINATES (A.U.)
---------------------------
 P      0   0   0     0.000000000000     0.00000000     0.00000000
 C      1   0   0     3.516413646415     0.00000000     0.00000000
 H      2   1   0     2.080472870859   109.51978581     0.00000000
 H      2   1   3     2.083597496121   111.18980546   239.44382803
 H      2   1   3     2.080478793436   109.54405694   118.86491843
 C      1   2   3     3.516800322008    98.52161428   170.46057326
 H      6   1   2     2.083611193312   111.18554737   310.17337096
 H      6   1   2     2.080490674399   109.54217931   189.62813374
 H      6   1   2     2.080514982308   109.56667568    70.74910775
 C      1   2   3     3.516191330936    98.50143577    70.44737343
 H     10   1   2     2.080387438999   109.56452819   170.69714776
 H     10   1   2     2.083628199505   111.20194213    50.06999546
 H     10   1   2     2.080622143022   109.49708022   289.59219621



           ************************************************************
           *        Program running with 32 parallel MPI-processes    *
           *              working on a common directory               *
           ************************************************************
------------------------------------------------------------------------------
                   ___                                                        
                  /   \      - P O W E R E D   B Y -                         
                 /     \                                                     
                 |  |  |   _    _      __       _____    __    __             
                 |  |  |  | |  | |    /  \     |  _  \  |  |  /  |          
                  \  \/   | |  | |   /    \    | | | |  |  | /  /          
                 / \  \   | |__| |  /  /\  \   | |_| |  |  |/  /          
                |  |  |   |  __  | /  /__\  \  |    /   |      \           
                |  |  |   | |  | | |   __   |  |    \   |  |\   \          
                \     /   | |  | | |  |  |  |  | |\  \  |  | \   \       
                 \___/    |_|  |_| |__|  |__|  |_| \__\ |__|  \__/        
                                                                              
                      - O R C A' S   B I G   F R I E N D -                    
                                      &                                       
                       - I N T E G R A L  F E E D E R -                       
                                                                              
 v1 FN, 2020, v2 2021, v3 2022-2024                                           
------------------------------------------------------------------------------


----------------------
SHARK INTEGRAL PACKAGE
----------------------

Number of atoms                             ...     13
Number of basis functions                   ...    105
Number of shells                            ...     53
Maximum angular momentum                    ...      2
Integral batch strategy                     ... SHARK/LIBINT Hybrid
RI-J (if used) integral strategy            ... SPLIT-RIJ (Revised 2003 algorithm where possible)
Printlevel                                  ...      1
Contraction scheme used                     ... SEGMENTED contraction
Prescreening option                         ... SCHWARTZ
   Thresh                                   ... 2.500e-11
   Tcut                                     ... 2.500e-12
   Tpresel                                  ... 2.500e-12 
Coulomb Range Separation                    ... NOT USED
Exchange Range Separation                   ... Long Range
   Mu parameter                             ... 3.000e-01
   Scaling (regular/separated)              ... 1.670e-01 8.330e-01
Robust (split-)RI terms used:
  metric    (central integrals)             ... YES
  density   (r.h.s.  integrals)             ... YES
  potential (l.h.s.  integrals)             ... YES
Multipole approximations                    ... NOT USED
Finite Nucleus Model                        ... NOT USED
CABS basis                                  ... NOT available
Auxiliary Coulomb fitting basis             ... AVAILABLE
   # of basis functions in Aux-J            ...    297
   # of shells in Aux-J                     ...    107
   Maximum angular momentum in Aux-J        ...      4
Auxiliary J/K fitting basis                 ... NOT available
Auxiliary Correlation fitting basis         ... NOT available
Auxiliary 'external' fitting basis          ... NOT available

Checking pre-screening integrals            ... done (  0.0 sec) Dimension = 53
   => SHARK Basis and OBASIS are compatible. Storing Pre-screening
Shell pair information
Shell pair cut-off parameter TPreSel        ...   2.5e-12
Total number of shell pairs                 ...      1431
Shell pairs after pre-screening             ...      1416
Total number of primitive shell pairs       ...      5039
Primitive shell pairs kept                  ...      3947
          la=0 lb=0:    490 shell pairs
          la=1 lb=0:    552 shell pairs
          la=1 lb=1:    168 shell pairs
          la=2 lb=0:    124 shell pairs
          la=2 lb=1:     72 shell pairs
          la=2 lb=2:     10 shell pairs

Checking whether 4 symmetric matrices of dimension 105 fit in memory
:Max Core in MB      =   4096.00
 MB in use           =      5.18
 MB left             =   4090.82
[...]
                     * LOEWDIN POPULATION ANALYSIS *
                     *******************************

----------------------
LOEWDIN ATOMIC CHARGES
----------------------
   0 P :    0.433240
   1 C :   -0.217317
   2 H :    0.027620
   3 H :    0.017673
   4 H :    0.027612
   5 C :   -0.217318
   6 H :    0.017677
   7 H :    0.027612
   8 H :    0.027615
   9 C :   -0.217306
  10 H :    0.027616
  11 H :    0.017669
  12 H :    0.027606

-------------------------------
LOEWDIN REDUCED ORBITAL CHARGES
-------------------------------
  0 P s       :     5.295933  s :     5.295933
      pz      :     3.424677  p :     9.035939
      px      :     2.799424
      py      :     2.811838
      dz2     :     0.022721  d :     0.234887
      dxz     :     0.060732
      dyz     :     0.040372
      dx2y2   :     0.067016
      dxy     :     0.044046

  1 C s       :     2.895960  s :     2.895960
      pz      :     1.086584  p :     3.265280
      px      :     1.095558
      py      :     1.083137
      dz2     :     0.018411  d :     0.056078
      dxz     :     0.010708
      dyz     :     0.004739
      dx2y2   :     0.014396
      dxy     :     0.007824

  2 H s       :     0.904671  s :     0.904671
      pz      :     0.012763  p :     0.067709
      px      :     0.014687
      py      :     0.040259

  3 H s       :     0.914448  s :     0.914448
      pz      :     0.040713  p :     0.067879
      px      :     0.013793
      py      :     0.013373

  4 H s       :     0.904680  s :     0.904680
      pz      :     0.016955  p :     0.067709
      px      :     0.032987
      py      :     0.017767

  5 C s       :     2.895965  s :     2.895965
      pz      :     1.083815  p :     3.265276
      px      :     1.081309
      py      :     1.100152
      dz2     :     0.018348  d :     0.056078
      dxz     :     0.007063
      dyz     :     0.008422
      dx2y2   :     0.010156
      dxy     :     0.012088

  6 H s       :     0.914444  s :     0.914444
      pz      :     0.041048  p :     0.067878
      px      :     0.012272
      py      :     0.014558

  7 H s       :     0.904680  s :     0.904680
      pz      :     0.014246  p :     0.067708
      px      :     0.032961
      py      :     0.020501

  8 H s       :     0.904675  s :     0.904675
      pz      :     0.017054  p :     0.067709
      px      :     0.027792
      py      :     0.022864

  9 C s       :     2.895959  s :     2.895959
      pz      :     1.090200  p :     3.265268
      px      :     1.090809
      py      :     1.084259
      dz2     :     0.019473  d :     0.056079
      dxz     :     0.009183
      dyz     :     0.004875
      dx2y2   :     0.015823
      dxy     :     0.006725

 10 H s       :     0.904676  s :     0.904676
      pz      :     0.014359  p :     0.067708
      px      :     0.037334
      py      :     0.016015

 11 H s       :     0.914453  s :     0.914453
      pz      :     0.040478  p :     0.067879
      px      :     0.013818
      py      :     0.013583

 12 H s       :     0.904684  s :     0.904684
      pz      :     0.012983  p :     0.067710
      px      :     0.013893
      py      :     0.040834



                      *****************************
                      * MAYER POPULATION ANALYSIS *
                      *****************************

  NA   - Mulliken gross atomic population
  ZA   - Total nuclear charge
  QA   - Mulliken gross atomic charge
  VA   - Mayer's total valence
  BVA  - Mayer's bonded valence
  FA   - Mayer's free valence

  ATOM       NA         ZA         QA         VA         BVA        FA
  0 P     14.9034    15.0000     0.0966     3.0529     3.0529     0.0000
  1 C      6.1847     6.0000    -0.1847     3.8830     3.8830    -0.0000
  2 H      0.9440     1.0000     0.0560     0.9865     0.9865    -0.0000
  3 H      0.9596     1.0000     0.0404     0.9908     0.9908    -0.0000
  4 H      0.9440     1.0000     0.0560     0.9865     0.9865     0.0000
  5 C      6.1847     6.0000    -0.1847     3.8830     3.8830    -0.0000
  6 H      0.9596     1.0000     0.0404     0.9908     0.9908     0.0000
  7 H      0.9440     1.0000     0.0560     0.9865     0.9865    -0.0000
  8 H      0.9439     1.0000     0.0561     0.9865     0.9865    -0.0000
  9 C      6.1847     6.0000    -0.1847     3.8830     3.8830    -0.0000
 10 H      0.9440     1.0000     0.0560     0.9865     0.9865    -0.0000
 11 H      0.9596     1.0000     0.0404     0.9908     0.9908    -0.0000
 12 H      0.9440     1.0000     0.0560     0.9865     0.9865     0.0000

  Mayer bond orders larger than 0.100000
B(  0-P ,  1-C ) :   0.9841 B(  0-P ,  5-C ) :   0.9841 B(  0-P ,  9-C ) :   0.9841 
B(  1-C ,  2-H ) :   0.9736 B(  1-C ,  3-H ) :   0.9611 B(  1-C ,  4-H ) :   0.9736 
B(  5-C ,  6-H ) :   0.9611 B(  5-C ,  7-H ) :   0.9736 B(  5-C ,  8-H ) :   0.9736 
B(  9-C , 10-H ) :   0.9736 B(  9-C , 11-H ) :   0.9611 B(  9-C , 12-H ) :   0.9736 


-------
TIMINGS
-------

Total SCF time: 0 days 0 hours 0 min 1 sec 

Total time                  ....       1.697 sec
Sum of individual times     ....       1.471 sec  ( 86.7%)

SCF preparation             ....       0.310 sec  ( 18.3%)
Fock matrix formation       ....       1.048 sec  ( 61.7%)
  Startup                   ....       0.015 sec  (  1.4% of F)
  Split-RI-J                ....       0.066 sec  (  6.3% of F)
  Chain of spheres X        ....       0.718 sec  ( 68.5% of F)
  XC integration            ....       0.275 sec  ( 26.2% of F)
    Basis function eval.    ....       0.032 sec  ( 11.7% of XC)
    Density eval.           ....       0.014 sec  (  5.2% of XC)
    XC-Functional eval.     ....       0.025 sec  (  9.0% of XC)
    XC-Potential eval.      ....       0.017 sec  (  6.1% of XC)
Diagonalization             ....       0.000 sec  (  0.0%)
Density matrix formation    ....       0.023 sec  (  1.4%)
Total Energy calculation    ....       0.011 sec  (  0.6%)
Population analysis         ....       0.022 sec  (  1.3%)
Orbital Transformation      ....       0.008 sec  (  0.4%)
Orbital Orthonormalization  ....       0.000 sec  (  0.0%)
DIIS solution               ....       0.010 sec  (  0.6%)
SOSCF solution              ....       0.039 sec  (  2.3%)
Finished LeanSCF after   1.7 sec

Maximum memory used throughout the entire LEANSCF-calculation: 9.4 MB
------------------------------------------------------------------------------
                           ORCA ORBITAL LOCALIZATION
------------------------------------------------------------------------------

Input orbitals are from                  ... TPhP_pme3_opt.gbw
Output orbitals are to                   ... TPhP_pme3_opt.loc
Max. number of iterations                ... 128
Localizations seeded randomly            ... on
Convergence tolerance                    ... 1.000e-06
Threshold for strong local MOs           ... 9.500e-01
Threshold for bond MOs                   ... 8.500e-01
Operator                                 ... 0
Orbital range for localization           ... 5 to 20
Localization criterion                   ... NEW-BOYS
Doing the dipole integrals               ... o.k.
Initial value of the localization sum :   113.913789
ITERATION   0 : L=  146.9240164722 DL=  3.30e+01 (AVERGE_DL)=    0.5244856831 
ITERATION   1 : L=  148.9869987053 DL=  2.06e+00 (AVERGE_DL)=    0.1311164315 
ITERATION   2 : L=  148.9914175952 DL=  4.42e-03 (AVERGE_DL)=    0.0060682850 
ITERATION   3 : L=  148.9914290537 DL=  1.15e-05 (AVERGE_DL)=    0.0003090105 
ITERATION   4 : L=  148.9914290867 DL=  3.30e-08 (AVERGE_DL)=    0.0000165727 
LOCALIZATION SUM CONVERGED


--------------------------------------------------------------------------------
                    LOCALIZED MOLECULAR ORBITAL COMPOSITIONS
--------------------------------------------------------------------------------

The Mulliken populations for each LMO on each atom are computed
The LMO`s will be ordered according to atom index and type
  (A) Strongly localized MO`s have populations of >=0.950 on one atom
  (B) Two center bond orbitals have populations of >=0.850 on two atoms
  (C) Other MO`s are considered to be `delocalized`

FOUND  -   4 strongly local MO`s
       -  12 two center bond MO`s
       -   0 significantly delocalized MO`s

Rather strongly localized orbitals:
MO   8:   0P  -   1.032407
MO   7:   0P  -   1.000474
MO   6:   0P  -   1.000474
MO   5:   0P  -   0.999610
Bond-like localized orbitals:
MO  20:  12H  -   0.485219  and   9C  -   0.519778
MO  19:  11H  -   0.491983  and   9C  -   0.508995
MO  18:  10H  -   0.485216  and   9C  -   0.519772
MO  17:   9C  -   0.581820  and   0P  -   0.460138
MO  16:   8H  -   0.485202  and   5C  -   0.519792
MO  15:   7H  -   0.485223  and   5C  -   0.519769
MO  14:   6H  -   0.491971  and   5C  -   0.509001
MO  13:   5C  -   0.581809  and   0P  -   0.460146
MO  12:   4H  -   0.485213  and   1C  -   0.519780
MO  11:   3H  -   0.491972  and   1C  -   0.508996
MO  10:   2H  -   0.485213  and   1C  -   0.519779
MO   9:   1C  -   0.581815  and   0P  -   0.460135
Localized MO's were stored in: TPhP_pme3_opt.loc


-------------------------------------------------------------------------------
                          DFT DISPERSION CORRECTION                            
                                                                               
                                DFTD4 V3.4.0                                   
-------------------------------------------------------------------------------
The WB97X-D3BJ functional is recognized
Active option DFTDOPT                   ...         5   

-------------------------   ----------------
Dispersion correction           -0.019889062
-------------------------   ----------------


-------------------------   --------------------
FINAL SINGLE POINT ENERGY      -460.998881043861
-------------------------   --------------------

                                *** OPTIMIZATION RUN DONE ***



           ************************************************************
           *        Program running with 32 parallel MPI-processes    *
           *              working on a common directory               *
           ************************************************************

------------------------------------------------------------------------------
                              ORCA PROPERTY CALCULATIONS
------------------------------------------------------------------------------

GBWName                                 ... TPhP_pme3_opt.gbw
Number of atoms                         ...     13
Number of basis functions               ...    105
Max core memory                         ...   4096 MB

Electric properties:
Dipole moment                           ... YES
Quadrupole moment                       ...  NO
Static polarizability (Dipole/Dipole)   ...  NO
Static polarizability (Dipole/Quad.)    ...  NO
Static polarizability (Quad./Quad.)     ...  NO
Static polarizability (Velocity)        ...  NO
Static hyperpolarizability              ...  NO

Atomic electric properties:
Dipole moment                           ...  NO
Quadrupole moment                       ...  NO
Static polarizability                   ...  NO

Choice of electric origin               ... Center of mass
Position of electric origin             ...     1.409572    -8.368136     1.330716

General magnetic properties:
Magnetizability                         ...  NO

EPR properties:
g-Tensor (aka g-matrix)                 ...  NO
Zero-Field splitting spin-orbit         ...  NO
Zero-field splitting spin-spin          ...  NO
Hyperfine couplings                     ...  NO (   0 nuclei)
Quadrupole couplings                    ...  NO (   0 nuclei)
Contact density                         ...  NO (   0 nuclei)

NMR properties:
Chemical shifts                         ...  NO (   0 nuclei)
Spin-rotation constants                 ...  NO (   0 nuclei)
Spin-spin couplings                     ...  NO (   0 nuclei,    0 pairs)

Choice of magnetic origin               ... GIAO
Position of magnetic origin             ...     0.000000     0.000000     0.000000

Properties with geometric perturbations:
SCF Hessian                             ...  NO
IR spectrum                             ...  NO
VCD spectrum                            ...  NO
X-ray spectroscopy properties:
SCF XES/XAS/RIXS spectra                ...  NO

SCF SOC stabilization energy            ...  NO
Diagonal Born-Oppenheimer correction    ...  NO

-------------
DIPOLE MOMENT
-------------

Method             : SCF
Type of density    : Electron Density
Multiplicity       :   1
Irrep              :   0
Energy             :  -460.9789919814483596 Eh
Basis              : AO
                                X                 Y                 Z
Electronic contribution:      0.349496418       0.688680673      -4.223746174
Nuclear contribution   :     -0.388516246      -0.765396531       4.694127521
                        -----------------------------------------
Total Dipole Moment    :     -0.039019828      -0.076715858       0.470381347
                        -----------------------------------------
Magnitude (a.u.)       :      0.478190842
Magnitude (Debye)      :      1.215464525



--------------------
Rotational spectrum 
--------------------
 
Rotational constants in cm-1:             0.191869             0.191838             0.123283 
Rotational constants in MHz :          5752.094635          5751.164711          3695.919749 

Dipole components along the rotational axes: 
x,y,z [a.u.] :     0.000006     0.000016     0.478191 
x,y,z [Debye]:     0.000015     0.000040     1.215465 

 

Dipole moment calculation done in   0.0 sec 

Maximum memory used throughout the entire PROP-calculation: 5.6 MB

--------------------------------
SUGGESTED CITATIONS FOR THIS RUN
--------------------------------

Below you find a list of papers that are relevant to this ORCA run
We neither can nor want to force you to cite these papers, but we appreciate if you do
You receive ORCA, which is the product of decades of hard work by many enthusiastic individuals, for free
The only thing we kindly ask in return is that you cite our papers,
We deeply appreciate it, if you show your appreciation for ORCA by not just citing the generic ORCA reference.

Please note that relegating all ORCA citations to the supporting information does *not* help us.
SI sections are not indexed - citations you put there will not count into any citation statistics
But we need these citations in order to attract the funding resources that allow us to do what we are doing

Therefore, if you are a happy ORCA user, please consider citing a few of the papers listed below in the main body of your paper

In addition to the list printed below, the program has created the file TPhP_pme3_opt.bibtex that contains the list in bibtex format
You can import this file easily into all common literature databanks and citation aid programs

It goes without saying that in many instances, there are alternative algorithms to achieve similar
results as the ones you have gotten from ORCA. It is, of course, also the case that in some instances
ORCA just re-implements algorithms worked out by others. We are fully aware of that and we are also
fully appreciative of our colleagues work. Hence this citation list should not be read as indicating
that the listed papers, which are focused on our own work, are the only ones worth citing. It simply
meant to make it easier for users to cite ORCA specific papers. It is not a substitute for doing your
own literature research and citing the relevant literature in a scientifically appropriate manner.

List of essential papers. We consider these as the minimum necessary citations

  1. Neese, F.
     Software update: the ORCA program system, version 6.0
     WIRES Comput. Molec. Sci. 2025 15(1), e70019
     doi.org/10.1002/wcms.70019

List of papers to cite with high priority. The work reported in these papers was absolutely
necessary for this run to complete.
Our perspective: the developers of density functionals and basis sets usually get cited in chemistry papers
Good! But without the algorithms to do something with them, the functionals or basis sets would not do anything.
Hence, in our opinion, the algorithm design and method developments papers are equally worthy of getting cited

  1. Neese, F.
     An improvement of the resolution of the identity approximation for the formation of the Coulomb matrix
     J. Comp. Chem. 2003 24(14), 1740-1747
     doi.org/10.1002/jcc.10318
  2. Neese, F.; Wennmohs, F.; Hansen, A.; Becker, U.
     Efficient, approximate and parallel Hartree-Fock and hybrid DFT calculations. A 'chain-of-spheres' algorithm for the Hartree-Fock exchange
     Chem. Phys. 2009 356(1-3), 98-109
     doi.org/10.1016/j.chemphys.2008.10.036
  3. Caldeweyher, E.; Bannwarth, C.; Grimme, S.
     Extension of the D3 dispersion coefficient model
     J. Chem. Phys. 2017 147 , 034112
     doi.org/10.1063/1.4993215
  4. Caldeweyher, E.; Ehlert, S.; Hansen, A.; Neugebauer, H.; Spicher, S.; Bannwarth, C.; Grimme, S.
     A generally applicable atomic-charge dependent London dispersion correction
     J. Chem. Phys. 2019 150 , 154122
     doi.org/10.1063/1.5090222
  5. Helmich-Paris, B.; de Souza, B.; Neese, F.; Izsák, R.
     An improved chain of spheres for exchange algorithm
     J. Chem. Phys. 2021 155(10), 104109
     doi.org/10.1063/5.0058766
  6. Neese, F.
     The SHARK Integral Generation and Digestion System
     J. Comp. Chem. 2022 44(3), 381
     doi.org/10.1002/jcc.26942

List of suggested additional citations. These are papers that are important in the 'surrounding' of 
of this run, or papers that preceded the highly important papers. If you like your results we are grateful for a citation.

  1. Izsak, R.; Neese, F.
     An overlap fitted chain of spheres exchange method
     J. Chem. Phys. 2011 135 , 144105
     doi.org/10.1063/1.3646921
  2. Izsak, R.; Hansen, A.; Neese, F.
     The resolution of identity and chain of spheres approximations for the LPNO-CCSD singles Fock term
     Molec. Phys. 2012 110 , 2413-2417
     doi.org/10.1080/00268976.2012.687466
  3. Neese, F.
     The ORCA program system
     WIRES Comput. Molec. Sci. 2012 2(1), 73-78
     doi.org/10.1002/wcms.81
  4. Izsak, R.; Neese, F.; Klopper, W.
     Robust fitting techniques in the chain of spheres approximation to the Fock exchange: The role of the complementary space
     J. Chem. Phys. 2013 139 , 
     doi.org/10.1063/1.4819264
  5. Neese, F.
     Software update: the ORCA program system, version 4.0
     WIRES Comput. Molec. Sci. 2018 8(1), 1-6
     doi.org/10.1002/wcms.1327
  6. Neese, F.; Wennmohs, F.; Becker, U.; Riplinger, C.
     The ORCA quantum chemistry program package
     J. Chem. Phys. 2020 152(22), 224108
     doi.org/10.1063/5.0004608
  7. Neese, F.
     Software update: The ORCA program system—Version 5.0
     WIRES Comput. Molec. Sci. 2022 12(1), e1606
     doi.org/10.1002/wcms.1606

List of optional additional citations

  1. Neese, F.
     Approximate second-order SCF convergence for spin unrestricted wavefunctions
     Chem. Phys. Lett. 2000 325(1-3), 93-98
     doi.org/10.1016/s0009-2614(00)00662-x

Timings for individual modules:

Sum of individual times          ...       36.313 sec (=   0.605 min)
Startup calculation              ...       11.208 sec (=   0.187 min)  30.9 %
SCF iterations                   ...       18.414 sec (=   0.307 min)  50.7 %
Property calculations            ...        0.552 sec (=   0.009 min)   1.5 %
SCF Gradient evaluation          ...        5.926 sec (=   0.099 min)  16.3 %
Geometry relaxation              ...        0.168 sec (=   0.003 min)   0.5 %
Orbital localization             ...        0.044 sec (=   0.001 min)   0.1 %
                             ****ORCA TERMINATED NORMALLY****
TOTAL RUN TIME: 0 days 0 hours 0 minutes 46 seconds 711 msec
