
                                 *****************
                                 * O   R   C   A *
                                 *****************

                                            #,                                       
                                            ###                                      
                                            ####                                     
                                            #####                                    
                                            ######                                   
                                           ########,                                 
                                     ,,################,,,,,                         
                               ,,#################################,,                 
                          ,,##########################################,,             
                       ,#########################################, ''#####,          
                    ,#############################################,,   '####,        
                  ,##################################################,,,,####,       
                ,###########''''           ''''###############################       
              ,#####''   ,,,,##########,,,,          '''####'''          '####       
            ,##' ,,,,###########################,,,                        '##       
           ' ,,###''''                  '''############,,,                           
         ,,##''                                '''############,,,,        ,,,,,,###''
      ,#''                                            '''#######################'''  
     '                                                          ''''####''''         
             ,#######,   #######,   ,#######,      ##                                
            ,#'     '#,  ##    ##  ,#'     '#,    #''#        ,####,    ,#,          
            ##       ##  ##   ,#'  ##            #'  '#       #'       ,# #          
            ##       ##  #######   ##           ,######,      #####,      #          
            '#,     ,#'  ##    ##  '#,     ,#' ,#      #,     #,   #      #          
             '#######'   ##     ##  '#######'  #'      '#     '####' #    #          



                #########################################################
                #                        -***-                          #
                #          Department of theory and spectroscopy        #
                #                                                       #
                #                      Frank Neese                      #
                #                                                       #
                #     Directorship, Architecture, Infrastructure        #
                #                    SHARK, DRIVERS                     #
                #        Core code/Algorithms in most modules           #
                #                                                       #
                #        Max Planck Institute fuer Kohlenforschung      #
                #                Kaiser Wilhelm Platz 1                 #
                #                 D-45470 Muelheim/Ruhr                 #
                #                      Germany                          #
                #                                                       #
                #                  All rights reserved                  #
                #                        -***-                          #
                #########################################################


                         Program Version 6.1.1  -  RELEASE   -
                                (GIT: $487d211c$)
                          ($2025-11-21 10:33:24 +0100$)


 With contributions from (in alphabetic order):
[Max-Planck-Institut fuer Kohlenforschung]                               
  Daniel Aravena         : Magnetic Suceptibility                        
  Michael Atanasov       : Ab Initio Ligand Field Theory (pilot matlab implementation)
  Alexander A. Auer      : GIAO ZORA, VPT2 properties, NMR spectrum      
  Ute Becker             : All parallelization in ORCA, NUMFREQ, NUMCALC 
  Giovanni Bistoni       : ED, misc. LED, open-shell LED, HFLD           
  Dmytro Bykov           : pre 5.0 version of the SCF Hessian            
  Marcos Casanova-Páez   : Triplet and SCS-CIS(D). UHF-(DLPNO)-IP/EA/STEOM-CCSD. UHF-CVS-IP/STEOM-CCSD   
  Vijay G. Chilkuri      : MRCI spin determinant printing, contributions to CSF-ICE 
  Pauline Colinet        : FMM embedding                                 
  Dipayan Datta          : RHF DLPNO-CCSD density                        
  Achintya Kumar Dutta   : EOM-CC, STEOM-CC                              
  Nicolas Foglia         : Exact transition moments, OPA infrastructure, MCD improvements    
  Dmitry Ganyushin       : Spin-Orbit,Spin-Spin,Magnetic field MRCI      
  Miquel Garcia-Rates    : C-PCM and meta-GGA Hessian, CCSD/C-PCM, Gaussian charge scheme 
  Tiago L. C. Gouveia    : GS-ROHF, GS-ROCIS                             
  Yang Guo               : DLPNO-NEVPT2, F12-NEVPT2, CIM, IAO-localization        
  Andreas Hansen         : Spin unrestricted coupled pair/coupled cluster methods 
  Ingolf Harden          : AUTO-CI MPn and infrastructure                
  Benjamin Helmich-Paris : MC-RPA, TRAH-(SCF,CASSCF), AVAS, COSX integrals, SCF dyn. polar., MC-PDFT, srDFT 
  Lee Huntington         : MR-EOM, pCC                                   
  Robert Izsak           : Overlap fitted RIJCOSX, COSX-SCS-MP3, EOM     
  Riya Kayal             : Wick's Theorem for AUTO-CI, AUTO-CI UHF-CCSDT 
  Emily Kempfer          : AUTO-CI RHF CISDT and CCSDT, approximate NEVPT4
  Christian Kollmar      : KDIIS, OOCD, Brueckner-CCSD(T), CCSD density, CASPT2, CASPT2-K, improved NEVPT2 
  Axel Koslowski         : Symmetry handling                             
  Simone Kossmann        : meta-GGA functionals, TD-DFT gradient, OOMP2, (MP2 Hessian; deprecated post 5.0) 
  Lucas Lang             : DCDCAS, Hyperfine gauge corrections, ICE-SOC+SSC
  Marvin Lechner         : AUTO-CI (C++ implementation), FIC-MRCC        
  Spencer Leger          : CASSCF response                               
  Dagmar Lenk            : GEPOL surface, SMD, ORCA-2-JSON               
  Dimitrios Liakos       : Extrapolation schemes; Compound Job, Property file
  Dimitrios Manganas     : Further ROCIS development; embedding schemes. LFT, Crystal Embedding 
  Dimitrios Pantazis     : SARC Basis sets                               
  Anastasios Papadopoulos: AUTO-CI, single reference methods and gradients 
  Taras Petrenko         : pre 6.0 DFT Hessian and TD-DFT gradient,  ECA, NRVS 
  Petra Pikulova         : Analytic Raman intensities                    
  Peter Pinski           : DLPNO-MP2, DLPNO-MP2 Gradient                 
  Shashank Vittal Rao    : ES-AILFT, MagRelax                            
  Christoph Reimann      : Effective Core Potentials                     
  Marius Retegan         : Local ZFS, SOC                                
  Christoph Riplinger    : Optimizer, TS searches, QM/MM, DLPNO-CCSD(T), (RO)-DLPNO pert. Triples 
  Michael Roemelt        : Original ROCIS implementation, recursive CI coupling coefficients
  Masaaki Saitow         : Open-shell DLPNO-CCSD energy and density      
  Barbara Sandhoefer     : DKH picture change effects                    
  Yorick L. A. Schmerwitz: GMF and freeze-and-release deltaSCF, NEB S-IDPP initial path                    
  Kantharuban Sivalingam : CASSCF convergence/infrastructure, NEVPT2, NEVPT3, NEVPT4(SD), FIC-MRCI and CEPA variants
  Bernardo de Souza      : ESD, SOC TD-DFT                               
  Georgi L. Stoychev     : AutoAux, RI-MP2 NMR, DLPNO-MP2 response, X2C  
  Van Anh Tran           : RI-MP2 g-tensors                              
  Willem Van den Heuvel  : Paramagnetic NMR                              
  Zikuan Wang            : NOTCH, Electric field optimization            
  Frank Wennmohs         : Technical directorship and infrastructure     
  Hang Xu                : AUTO-CI-Response properties                   
                                                                         
[FACCTs GmbH]                                                            
  Markus Bursch, Nicolas Foglia, Miquel Garcia-Rates, Ingolf Harden, Hagen Neugebauer, Anastasios Papadopoulos, 
  Christoph Riplinger, Bernardo de Souza, Georgi L. Stoychev                                                    
                                                                 
  APM, various basis sets, CI-OPT, improved COSX, DLPNO-Multilevel,           
  DOCKER, DRACO, updates on ESD, Fragmentator, GOAT, IRC, LR-CPCM, L-BFGS, MBIS, meta-GGA TD-DFT gradient, ML-optimized integration grids, 
  MM, NACMEs, nearIR, NEB, NEB-TS, NL-DFT gradient (VV10), 2- and 3-layer-ONIOM, interface openCOSMO-RS, QMMM,   
  Crystal-QMMM, RESP, rigid body optimization, SF, symmetry and pop. for TD-DFT, various functionals, SOLVATOR                                   
                                                                         
[Other institutions]                                                     
  V. Asgeirsson          : NEB                                           
  Christoph Bannwarth    : sTDA-DFT, sTD-DFT, PBEh-3c, B97-3c, D3        
  Giovanni Bistoni       : ETS/NOCV, ADLD/ADEX, COVALED                  
  Martin Brehm           : Molecular dynamics                            
  Ronald Cardenas        : ETS/NOCV                                      
  Martina Colucci        : COVALED                                       
  Sebastian Ehlert       : rSCAN, r2SCAN, r2SCAN-3c, D4, dhf basis sets  
  Marvin Friede          : D4 for Fr, Ra, Ac-Lr                          
  Lars Goerigk           : TD-DFT with DH, B97 family of functionals     
  Stefan Grimme          : VdW corrections, initial TS optimization, DFT functionals, gCP, sTDA/sTD-DF 
  Waldemar Hujo          : DFT-NL                                        
  H. Jonsson             : NEB                                           
  Holger Kruse           : gCP                                           
  Marcel Mueller         : wB97X-3c, vDZP basis set                      
  Hagen Neugebauer       : wr2SCAN, Native XTB                           
  Gianluca Regni         : ADLD/ADEX                                     
  Tobias Risthaus        : pre 6.0 range-separated hybrid DFT and stability analysis
  Lukas Wittmann         : regularized MP2, r2SCAN double-hybrids, wr2SCAN        
                                                                         
We gratefully acknowledge several colleagues who have allowed us to      
interface, adapt or use parts of their codes:                            
  Ed Valeev, F. Pavosevic, A. Kumar             : LibInt (2-el integral package), F12 methods 
  Garnet Chan, S. Sharma, J. Yang, R. Olivares  : DMRG                   
  Ulf Ekstrom                                   : XCFun DFT Library      
  Mihaly Kallay                                 : mrcc  (arbitrary order and MRCC methods)
  Frank Weinhold                                : gennbo (NPA and NBO analysis)           
  Simon Mueller                                 : openCOSMO-RS                            
  Christopher J. Cramer and Donald G. Truhlar   : smd solvation model                     
  S Lehtola, MJT Oliveira, MAL Marques          : LibXC Library                           
  Liviu Ungur et al                             : ANISO software                          


 Your calculation uses the libint2 library for the computation of 2-el integrals
 For citations please refer to: http://libint.valeyev.net

 Your ORCA version has been built with support for libXC version: 7.0.0
 For citations please refer to: https://libxc.gitlab.io

 This ORCA versions uses:
   CBLAS   interface :  Fast vector & matrix operations
   LAPACKE interface :  Fast linear algebra routines
   SCALAPACK package :  Parallel linear algebra routines
   Shared memory     :  Shared parallel matrices
   BLAS/LAPACK       :  OpenBLAS 0.3.29  USE64BITINT DYNAMIC_ARCH NO_AFFINITY Haswell SINGLE_THREADED
        Core in use  :  Haswell
   Copyright (c) 2011-2014, The OpenBLAS Project


  ***********************************
  * Starting time: Thu Jul  9 12:35:21 2026
  * Host name:     ylva-work-pc
  * Process ID:    126289
  * Working dir.:  /home/ylvao/work/projects/bsse
  ***********************************

================================================================================

----- Orbital basis set information -----
Your calculation utilizes the basis: def2-SVP
   F. Weigend and R. Ahlrichs, Phys. Chem. Chem. Phys. 7, 3297 (2005).

The basis set includes element-specific modifications.

----- AuxJ basis set information -----
Your calculation utilizes the auxiliary basis: def2/J
   H-Rn: F. Weigend, Phys. Chem. Chem. Phys. 8, 1057 (2006).
   Fr-Lr: K. Eichkorn, F. Weigend, O. Treutler, R. Ahlrichs; Theor. Chem. Acc. 97, 119 (1997).

The basis set includes element-specific modifications.

================================================================================
                                        WARNINGS
                       Please study these warnings very carefully!
================================================================================

WARNING: Frozen-Core approximation turned on, but there are no core electrons.
  ===> : Turning off frozen-core approximation


WARNING: ROHF and Conv is not properly working
  ===> : Setting Mode to Direct


WARNING: Found SCFConvIgnored == true
  ===> : Will try to continue after any unconverged SCF -
         no matter how far from convergence the wavefunction might be.

         Please be very careful with your results!


WARNING: TRAH-SCF with ROHF wave function is not implemented yet
  ===> : Turning TRAH off


================================================================================
                                       INPUT FILE
================================================================================
NAME = 15h_def2tzvp_atom44.inp
|  1> # input to generate an atomic fitting density for Ru
|  2> # this file is used internally by ORCA
|  3> #
|  4> # atomic ground state (Mult=5): 1s2 2s2 2p6 3s2 3p6 4s2 3d10 4p6 5s2 4d6 
|  5> #
|  6> ! ROHF def2-SVP def2/J Conv LeanSCF AODIIS SOSCF NoMulliken NoLoewdin NoMayer NoPrintMOs 
|  7> 
|  8> %output print[p_atomdensfit] 2 end
|  9> 
| 10> %scf
| 11>   guess     HCore
| 12>   maxiter    1000
| 13>   maxdisk  500000
| 14>   diismaxeq     8
| 15>   soscfstart 1e-4
| 16>   lshift  1.000000
| 17>   ignoreconv true
| 18> 
| 19>   hftyp        rohf
| 20>   rohf_case    sahf
| 21>   rohf_numop   2
| 22>   rohf_norb[1] 5
| 23>   rohf_nel[1]  6
| 24> 
| 25> end
| 26> 
| 27> %basis
| 28>   NewECP 44
| 29>     N_core 28
| 30>     lmax f
| 31>     s 4
| 32>       1      11.1052693000    209.8229712000  2
| 33>       2       5.4147454000     30.6547264000  2
| 34>       3      11.3600000000     28.3406163000  2
| 35>       4       5.6800000000      4.9446292000  2
| 36>     p 4
| 37>       1       9.7712707000    146.3361823000  2
| 38>       2       5.0739908000     24.1278772000  2
| 39>       3      11.3600000000     28.3406163000  2
| 40>       4       5.6800000000      4.9446292000  2
| 41>     d 4
| 42>       1       7.6714231000     67.5158967000  2
| 43>       2       4.1365647000      9.8701041000  2
| 44>       3      11.3600000000     28.3406163000  2
| 45>       4       5.6800000000      4.9446292000  2
| 46>     f 2
| 47>       1      11.3600000000    -28.3406163000  2
| 48>       2       5.6800000000     -4.9446292000  2
| 49>   end
| 50>   NewGTO 44
| 51>     s 2 
| 52>      1      16.0000000000     -1.5737642279
| 53>      2      13.9105816940      2.5589062345
| 54>     s 1 
| 55>      1       4.7967971407      1.0000000000
| 56>     s 1 
| 57>      1       1.1555425594      1.0000000000
| 58>     s 1 
| 59>      1       0.5245574118      1.0000000000
| 60>     s 1 
| 61>      1       0.1073457265      1.0000000000
| 62>     s 1 
| 63>      1       0.0394327602      1.0000000000
| 64>     p 4 
| 65>      1      11.1872086710      0.0614129072
| 66>      2       6.2477688734     -0.2622856795
| 67>      3       1.6279472859      0.5523344774
| 68>      4       0.7932649354      0.5793783366
| 69>     p 1 
| 70>      1       0.3670727686      1.0000000000
| 71>     p 1 
| 72>      1       0.1150000000      1.0000000000
| 73>     p 1 
| 74>      1       0.0370000000      1.0000000000
| 75>     d 3 
| 76>      1       5.7341846619     -0.0576319015
| 77>      2       2.2483686294      0.3562966266
| 78>      3       0.9837697836      0.7306439889
| 79>     d 1 
| 80>      1       0.4037944558      1.0000000000
| 81>     d 1 
| 82>      1       0.1497861817      1.0000000000
| 83>   end
| 84>   NewAuxGTO 44
| 85>     S 1
| 86>      1 1310.72 1.0
| 87>     S 1
| 88>      1  655.36 1.0
| 89>     S 1
| 90>      1  327.68 1.0
| 91>     S 1
| 92>      1  163.84 1.0
| 93>     S 1
| 94>      1   81.82 1.0
| 95>     S 1
| 96>      1   40.96 1.0
| 97>     S 1
| 98>      1   20.48 1.0
| 99>     S 1
|100>      1   10.24 1.0
|101>     S 1
|102>      1    5.12 1.0
|103>     S 1
|104>      1    2.56 1.0
|105>     S 1
|106>      1    1.28 1.0
|107>     S 1
|108>      1    0.64 1.0
|109>     S 1
|110>      1    0.32 1.0
|111>     S 1
|112>      1    0.16 1.0
|113>     S 1
|114>      1    0.08 1.0
|115>     S 1
|116>      1    0.04 1.0
|117>     S 1
|118>      1    0.02 1.0
|119>     S 1
|120>      1    0.01 1.0
|121>   end
|122> end
|123> 
|124> * xyz 0 5
|125> 44  0.0 0.0 0.0
|126> *
|127> 
|128> 
|129>                          ****END OF INPUT****
================================================================================

                       ****************************
                       * Single Point Calculation *
                       ****************************

---------------------------------
CARTESIAN COORDINATES (ANGSTROEM)
---------------------------------
  Ru     0.000000    0.000000    0.000000

----------------------------
CARTESIAN COORDINATES (A.U.)
----------------------------
  NO LB      ZA    FRAG     MASS         X           Y           Z
   0 Ru   16.0000*   0   101.070    0.000000    0.000000    0.000000
* core charge reduced due to ECP

--------------------------------
INTERNAL COORDINATES (ANGSTROEM)
--------------------------------
 Ru     0   0   0     0.000000000000     0.00000000     0.00000000

---------------------------
INTERNAL COORDINATES (A.U.)
---------------------------
 Ru     0   0   0     0.000000000000     0.00000000     0.00000000

---------------------
BASIS SET INFORMATION
---------------------
There are 1 groups of distinct atoms

 Group   1 Type Ru  : 7s7p5d contracted to 6s4p3d pattern {211111/4111/311}

Atom   0Ru   basis set group =>   1
---------------------------------
AUXILIARY/J BASIS SET INFORMATION
---------------------------------
There are 1 groups of distinct atoms

 Group   1 Type Ru  : 18s contracted to 18s pattern {111111111111111111}

Atom   0Ru   basis set group =>   1
-------------------------
ECP PARAMETER INFORMATION
-------------------------

 Group 1, Type Ru ECP (replacing 28 core electrons, lmax=3)

Atom   0Ru   ECP group =>   1

------------------------------------------------------------------------------
                             ORCA STARTUP CALCULATIONS
------------------------------------------------------------------------------
------------------------------------------------------------------------------
                   ___                                                        
                  /   \      - P O W E R E D   B Y -                         
                 /     \                                                     
                 |  |  |   _    _      __       _____    __    __             
                 |  |  |  | |  | |    /  \     |  _  \  |  |  /  |          
                  \  \/   | |  | |   /    \    | | | |  |  | /  /          
                 / \  \   | |__| |  /  /\  \   | |_| |  |  |/  /          
                |  |  |   |  __  | /  /__\  \  |    /   |      \           
                |  |  |   | |  | | |   __   |  |    \   |  |\   \          
                \     /   | |  | | |  |  |  |  | |\  \  |  | \   \       
                 \___/    |_|  |_| |__|  |__|  |_| \__\ |__|  \__/        
                                                                              
                      - O R C A' S   B I G   F R I E N D -                    
                                      &                                       
                       - I N T E G R A L  F E E D E R -                       
                                                                              
 v1 FN, 2020, v2 2021, v3 2022-2024                                           
------------------------------------------------------------------------------


----------------------
SHARK INTEGRAL PACKAGE
----------------------

Number of atoms                             ...      1
Number of basis functions                   ...     33
Number of shells                            ...     13
Maximum angular momentum                    ...      2
Integral batch strategy                     ... SHARK/LIBINT Hybrid
RI-J (if used) integral strategy            ... SPLIT-RIJ (Revised 2003 algorithm where possible)
Printlevel                                  ...      1
Contraction scheme used                     ... SEGMENTED contraction
Prescreening option                         ... SCHWARTZ
   Thresh                                   ... 1.000e-10
   Tcut                                     ... 1.000e-11
   Tpresel                                  ... 1.000e-11 
Coulomb Range Separation                    ... NOT USED
Exchange Range Separation                   ... NOT USED
Multipole approximations                    ... NOT USED
Finite Nucleus Model                        ... NOT USED
CABS basis                                  ... NOT available
Auxiliary Coulomb fitting basis             ... AVAILABLE
   # of basis functions in Aux-J            ...     18
   # of shells in Aux-J                     ...     18
   Maximum angular momentum in Aux-J        ...      0
Auxiliary J/K fitting basis                 ... NOT available
Auxiliary Correlation fitting basis         ... NOT available
Auxiliary 'external' fitting basis          ... NOT available

Checking pre-screening integrals            ... done (  0.0 sec) Dimension = 13
   => SHARK Basis and OBASIS are compatible. Storing Pre-screening
Shell pair information
Shell pair cut-off parameter TPreSel        ...   1.0e-11
Total number of shell pairs                 ...        91
Shell pairs after pre-screening             ...        91
Total number of primitive shell pairs       ...       200
Primitive shell pairs kept                  ...       200
          la=0 lb=0:     21 shell pairs
          la=1 lb=0:     24 shell pairs
          la=1 lb=1:     10 shell pairs
          la=2 lb=0:     18 shell pairs
          la=2 lb=1:     12 shell pairs
          la=2 lb=2:      6 shell pairs

Checking whether 4 symmetric matrices of dimension 33 fit in memory
:Max Core in MB      =   4096.00
 MB in use           =      1.27
 MB left             =   4094.73
 MB needed           =      0.02
 Data fit in memory  = YES
Calculating RI/J V-Matrix + Cholesky decomp.... done (  0.0 sec)
Calculating Nuclear repulsion               ... done (  0.0 sec) ENN=      0.000000000000 Eh

Diagonalization of the overlap matrix:
Smallest eigenvalue                        ... 1.927e-02
Time for diagonalization                   ...    0.000 sec
Threshold for overlap eigenvalues          ... 1.000e-07
Number of eigenvalues below threshold      ... 0
Time for construction of square roots      ...    0.000 sec
Total time needed                          ...    0.001 sec

-------------------
DFT GRID GENERATION
-------------------

General Integration Accuracy     IntAcc      ... 4.388
Radial Grid Type                 RadialGrid  ... OptM3 with GC (2021)
Angular Grid (max. ang.)         AngularGrid ... 4 (Lebedev-302)
Angular grid pruning method      GridPruning ... 4 (adaptive)
Weight generation scheme         WeightScheme... mBecke (2022)
Basis function cutoff            BFCut       ... 1.0000e-10
Integration weight cutoff        WCut        ... 1.0000e-14
Partially contracted basis set               ... off
Rotationally invariant grid construction     ... off
Angular grids for H and He will be reduced by one unit

Total number of grid points                  ...    11810
Total number of batches                      ...      185
Average number of points per batch           ...       63
Average number of grid points per atom       ...    11810
Grids setup in   0.3 sec
Initializing property integral containers    ... done (  0.0 sec)

SHARK setup successfully completed in   0.4 seconds

Maximum memory used throughout the entire STARTUP-calculation: 6.4 MB
-------------------------------------------------------------------------------
                                 ORCA GUESS
                   Start orbitals & Density for SCF / CASSCF
-------------------------------------------------------------------------------

------------
SCF SETTINGS
------------
Hamiltonian:
 Ab initio Hamiltonian  Method          .... Hartree-Fock(GTOs)


General Settings:
 Integral files         IntName         .... 15h_def2tzvp_atom44
 Hartree-Fock type      HFTyp           .... ROHF
 Total Charge           Charge          ....    0
 Multiplicity           Mult            ....    5
 Number of Electrons    NEL             ....   16
 Basis Dimension        Dim             ....   33
 Nuclear Repulsion      ENuc            ....      0.0000000000 Eh

Convergence Acceleration:
 AO-DIIS                CNVDIIS         .... on
   Start iteration      DIISMaxIt       ....    12
   Startup error        DIISStart       ....  0.200000
   # of expansion vecs  DIISMaxEq       ....     8
   Bias factor          DIISBfac        ....   1.050
   Max. coefficient     DIISMaxC        ....  10.000
 MO-DIIS                CNVKDIIS        .... off
 Trust-Rad. Augm. Hess. CNVTRAH         .... off
 SOSCF                 CNVSOSCF           .... on
   Start iteration     SOSCFMaxIt         ....   150
   Startup grad/error  SOSCFStart         ....  0.000100
   Hessian update      SOSCFHessUp        .... L-BFGS
   Autom. constraints  SOSCFAutoConstrain .... off
 Level Shifting         CNVShift        .... on
   Level shift para.    LevelShift      ....    1.0000
   Turn off err/grad.   ShiftErr        ....    0.0010
 Zerner damping         CNVZerner       .... off
 Static damping         CNVDamp         .... on
   Fraction old density DampFac         ....    0.7000
   Max. Damping (<1)    DampMax         ....    0.9800
   Min. Damping (>=0)   DampMin         ....    0.0000
   Turn off err/grad.   DampErr         ....    0.1000

SCF Procedure:
 Maximum # iterations   MaxIter         ....  1000
 SCF integral mode      SCFMode         .... Direct
   Integral package                     .... SHARK and LIBINT hybrid scheme
 Reset frequency        DirectResetFreq ....    20
 Integral Threshold     Thresh          ....  1.000e-10 Eh
 Primitive CutOff       TCut            ....  1.000e-11 Eh

Convergence Tolerance:
 Convergence Check Mode ConvCheckMode   .... Total+1el-Energy
 Convergence forced     ConvForced      .... -1
 Energy Change          TolE            ....  1.000e-06 Eh
 1-El. energy change                    ....  1.000e-03 Eh
 Orbital Gradient       TolG            ....  5.000e-05
 Orbital Rotation angle TolX            ....  5.000e-05
 DIIS Error             TolErr          ....  1.000e-06


--------------------
INITIAL GUESS: HCORE
--------------------

Orthogonalizing HCORE                      ... done
Diagonalizing the Hamiltonian (no sym.)    ... done
Back transforming and storing orbitals     ... done
AVERAGE-CONFIGURATION (SAHF) CASE FOUND

-------------------
FINAL ROHF SETTINGS
-------------------
Number of operators             ... 2
  operator   0:   5 orbitals  10 electrons n(mue)= 2.000
  operator   1:   5 orbitals   6 electrons n(mue)= 1.200
Vector coupling coefficients a and b (Zerner convention):
   1.000    1.000           1.000    1.000 
   1.000    0.972           1.000    1.389 


   => ROHF data were saved in the ROHF file

Making the density                         ... done

                      -----------------
                      INTIAL GUESS DONE 
                      -----------------

             **** ENERGY FILE WAS UPDATED (15h_def2tzvp_atom44.en.tmp) ****
Finished Guess after   0.0 sec
Maximum memory used throughout the entire GUESS-calculation: 3.7 MB

-------------------------------------------------------------------------------------------
                                      ORCA LEAN-SCF
                              memory conserving SCF solver
-------------------------------------------------------------------------------------------

----------------------------------------D-I-I-S--------------------------------------------
Iteration    Energy (Eh)           Delta-E    RMSDP     MaxDP     DIISErr   Damp  Time(sec)
-------------------------------------------------------------------------------------------
               ***  Starting incremental Fock matrix formation  ***
    1    -85.7850831526744173     0.00e+00  1.33e-01  2.44e+00  1.02e+00  0.700   0.0
    2    -88.7056819320684866    -2.92e+00  8.98e-02  1.71e+00  3.97e-01  0.700   0.0
    3    -89.5447572261546441    -8.39e-01  6.37e-02  1.15e+00  2.18e-01  0.700   0.0
                               ***Turning on AO-DIIS***
    4    -90.8396037783907389    -1.29e+00  4.43e-02  7.95e-01  1.15e-01  0.700   0.0
    5    -91.7901401602460822    -9.51e-01  3.11e-02  5.50e-01  3.92e-02  0.700   0.0
    6    -92.4658923884136641    -6.76e-01  7.29e-02  1.29e+00  1.56e-02  0.000   0.0
    7    -94.0596114249128732    -1.59e+00  8.74e-04  1.63e-02  4.69e-02  0.000   0.0
    8    -94.0539429634745545     5.67e-03  2.00e-05  3.43e-04  5.27e-02  0.000   0.0
    9    -94.0540803722214207    -1.37e-04  6.31e-04  1.45e-02  5.26e-02  0.000   0.0
   10    -94.0534022895487851     6.78e-04  8.76e-04  1.77e-02  5.35e-02  0.000   0.0
   11    -94.0593253015646980    -5.92e-03  2.98e-04  7.04e-03  4.89e-02  0.000   0.0
   12    -94.0584091646664291     9.16e-04  3.63e-05  5.07e-04  4.98e-02  0.000   0.0
   13    -94.0586957062201918    -2.87e-04  1.03e-03  2.45e-02  4.94e-02  0.000   0.0
   14    -94.0563265481836339     2.37e-03  5.76e-03  7.27e-02  5.18e-02  0.000   0.0
   15    -94.0863095632453224    -3.00e-02  1.08e-03  1.49e-02  1.44e-02  0.000   0.0
   16    -94.0880552513554562    -1.75e-03  8.09e-04  6.65e-03  5.71e-03  0.000   0.0
   17    -94.0886905238847078    -6.35e-04  2.23e-04  2.30e-03  2.79e-03  0.000   0.0
   18    -94.0887474144649616    -5.69e-05  1.41e-04  2.67e-03  1.31e-03  0.000   0.0
   19    -94.0887568712557822    -9.46e-06  6.69e-05  1.41e-03  2.57e-04  0.000   0.0
   20    -94.0887582648631593    -1.39e-06  3.42e-05  6.64e-04  2.31e-04  0.000   0.0
               *** Restarting incremental Fock matrix formation ***
                             ****Resetting DIIS****
   21    -94.0887589402470894    -6.75e-07  1.89e-05  3.08e-04  2.22e-04  0.000   0.0
                 **** Energy Check signals convergence ****

               *****************************************************
               *                     SUCCESS                       *
               *           SCF CONVERGED AFTER  21 CYCLES          *
               *****************************************************

             **** ENERGY FILE WAS UPDATED (15h_def2tzvp_atom44.en.tmp) ****

----------------
TOTAL SCF ENERGY
----------------

Total Energy       :        -94.08875936922398 Eh           -2560.28530 eV

Components:
Nuclear Repulsion  :          0.00000000000000 Eh               0.00000 eV
Electronic Energy  :        -94.08875936922398 Eh           -2560.28530 eV
One Electron Energy:       -164.81191659619986 Eh           -4484.76025 eV
Two Electron Energy:         70.72315722697589 Eh            1924.47495 eV

Virial components:
Potential Energy   :       -128.51264984736545 Eh           -3497.00699 eV
Kinetic Energy     :         34.42389047814147 Eh             936.72168 eV
Virial Ratio       :          3.73324014404963

---------------
SCF CONVERGENCE
---------------

  Last Energy change         ...    6.7538e-07  Tolerance :   1.0000e-06
  Last MAX-Density change    ...    3.0810e-04  Tolerance :   1.0000e-05
  Last RMS-Density change    ...    1.8946e-05  Tolerance :   1.0000e-06
  Last DIIS Error            ...    2.2242e-04  Tolerance :   1.0000e-06


----------------
ORBITAL ENERGIES
----------------

  NO   OCC          E(Eh)            E(eV) 
   0   2.0000      -3.516590       -95.6913 
   1   2.0000      -2.211980       -60.1910 
   2   2.0000      -2.209416       -60.1213 
   3   2.0000      -2.202465       -59.9321 
   4   2.0000      -0.370625       -10.0852 
   5   1.2000      -0.436806       -11.8861 
   6   1.2000      -0.436317       -11.8728 
   7   1.2000      -0.419812       -11.4237 
   8   1.2000      -0.413733       -11.2583 
   9   1.2000      -0.246209        -6.6997 
  10   0.0000       0.011924         0.3245 
  11   0.0000       0.013456         0.3662 
  12   0.0000       0.017465         0.4753 
  13   0.0000       0.161083         4.3833 
  14   0.0000       0.219632         5.9765 
  15   0.0000       0.222733         6.0609 
  16   0.0000       0.230992         6.2856 
  17   0.0000       0.449457        12.2304 
  18   0.0000       0.449628        12.2350 
  19   0.0000       0.460617        12.5340 
  20   0.0000       0.455914        12.4061 
*Only the first 10 virtual orbitals were printed.

Warning: MO coefficients are modified such that the real solid harmonic m components
have the correct order within each shell (0, +1, -1, +2, -2, ...) and all s orbitals
come before all p orbitals etc. (with increasing orbital energy within each block of given angular momentum).

CleanUpVectors: The p-vectors have cracked symmetry
CleanUpVectors: The p-vectors have cracked symmetry
CleanUpVectors: The p-vectors have cracked symmetry
CleanUpVectors: The d-vectors have cracked symmetry at i=4
CleanUpVectors: The d-vectors have cracked symmetry at i=5
CleanUpVectors: The d-vectors have cracked symmetry at i=6
CleanUpVectors: The d-vectors have cracked symmetry at i=7
CleanUpVectors: The d-vectors have cracked symmetry at i=8
CleanUpVectors: The p-vectors have cracked symmetry
CleanUpVectors: The p-vectors have cracked symmetry
CleanUpVectors: The p-vectors have cracked symmetry
CleanUpVectors: The p-vectors have cracked symmetry
CleanUpVectors: The p-vectors have cracked symmetry
CleanUpVectors: The p-vectors have cracked symmetry
CleanUpVectors: The d-vectors have cracked symmetry at i=17
CleanUpVectors: The d-vectors have cracked symmetry at i=18
CleanUpVectors: The d-vectors have cracked symmetry at i=19
CleanUpVectors: The d-vectors have cracked symmetry at i=20
CleanUpVectors: The d-vectors have cracked symmetry at i=21
CleanUpVectors: The p-vectors have cracked symmetry
CleanUpVectors: The p-vectors have cracked symmetry
CleanUpVectors: The p-vectors have cracked symmetry
CleanUpVectors: The d-vectors have cracked symmetry at i=26
CleanUpVectors: The d-vectors have cracked symmetry at i=27
CleanUpVectors: The d-vectors have cracked symmetry at i=28
--------------------------
ATOM BASIS FOR ELEMENT Ru
--------------------------
 NewGTO Ru
 S 7
    1         16.000000000000        -0.243562660231
    2         13.910581694000         0.396027561630
    3          4.796797140700        -0.651895005324
    4          1.155542559400         0.848388957742
    5          0.524557411800         0.453029090622
    6          0.107345726500         0.015987340989
    7          0.039432760200        -0.003966726907
 P 19
    1         11.187208671000         0.026013797502
    2          6.247768873400        -0.111101181578
    3          1.627947285900         0.233962499144
    4          0.793264935400         0.245417965250
    5         11.187208671000        -0.035441387720
    6          6.247768873400         0.151365061260
    7          1.627947285900        -0.318752217686
    8          0.793264935400        -0.334359228379
    9         11.187208671000         0.029086075818
   10          6.247768873400        -0.124222439674
   11          1.627947285900         0.261593909471
   12          0.793264935400         0.274402287627
   13          0.367072768600         0.086968842502
   14          0.367072768600        -0.118486986242
   15          0.367072768600         0.097240026053
   16          0.115000000000         0.005016174067
   17          0.115000000000        -0.006834072187
   18          0.115000000000         0.005608593641
   19          0.037000000000        -0.000406760891
 D 19
    1         16.000000000000         0.000039829111
    2         13.910581694000        -0.000074488633
    3          4.796797140700         0.000383052337
    4          1.155542559400        -0.003283634928
    5          0.524557411800        -0.000150676894
    6          0.107345726500         0.036660876704
    7          0.039432760200        -0.025158583801
    8          5.734184661900         0.007703344883
    9          2.248368629400        -0.047624244971
   10          0.983769783600        -0.097661234253
   11          5.734184661900        -0.005757493428
   12          2.248368629400         0.035594443922
   13          0.983769783600         0.072992177159
   14          5.734184661900        -0.028112128239
   15          2.248368629400         0.173797084558
   16          0.983769783600         0.356399094576
   17          5.734184661900        -0.014642835336
   18          2.248368629400         0.090526126997
   19          0.983769783600         0.185638497786
 D 19
    1          5.734184661900         0.014829009345
    2          2.248368629400        -0.091677107090
    3          0.983769783600        -0.187998769042
    4          5.734184661900         0.000590877651
    5          2.248368629400        -0.003652971852
    6          0.983769783600        -0.007491010932
    7          5.734184661900         0.016848392105
    8          2.248368629400        -0.104161499349
    9          0.983769783600        -0.213600039103
   10          5.734184661900        -0.024831539460
   11          2.248368629400         0.153515561911
   12          0.983769783600         0.314808544733
   13          5.734184661900         0.003790028014
   14          2.248368629400        -0.023431019299
   15          0.983769783600        -0.048049103264
   16          0.403794455800        -0.176566951526
   17          0.403794455800        -0.007035498003
   18          0.403794455800        -0.200611461141
   19          0.403794455800         0.295665686222
 P 19
    1         11.187208671000         0.005547286071
    2          6.247768873400        -0.023691659666
    3          1.627947285900         0.049891097697
    4          0.793264935400         0.052333907039
    5         11.187208671000        -0.000539562142
    6          6.247768873400         0.002304392179
    7          1.627947285900        -0.004852705845
    8          0.793264935400        -0.005090308057
    9         11.187208671000        -0.005618798790
   10          6.247768873400         0.023997080187
   11          1.627947285900        -0.050534267709
   12          0.793264935400        -0.053008568475
   13          0.367072768600        -0.013061583262
   14          0.367072768600         0.001270447522
   15          0.367072768600         0.013229966381
   16          0.115000000000         0.033692073173
   17          0.115000000000        -0.003277092066
   18          0.115000000000        -0.034126413809
   19          0.037000000000        -0.722661361597
 P 19
    1         11.187208671000         0.010148907032
    2          6.247768873400        -0.043344519882
    3          1.627947285900         0.091277086811
    4          0.793264935400         0.095746271309
    5         11.187208671000        -0.000987143253
    6          6.247768873400         0.004215946626
    7          1.627947285900        -0.008878154083
    8          0.793264935400        -0.009312853633
    9         11.187208671000        -0.010279741449
   10          6.247768873400         0.043903294827
   11          1.627947285900        -0.092453783410
   12          0.793264935400        -0.096980582304
   13          0.367072768600         0.234373420833
   14          0.367072768600        -0.022796557337
   15          0.367072768600        -0.237394840742
   16          0.115000000000        -1.159765620990
   17          0.115000000000         0.112805724224
   18          0.115000000000         1.174716714523
   19          0.037000000000         0.707449609552
 D 19
    1         16.000000000000         0.000036999900
    2         13.910581694000        -0.000069197427
    3          4.796797140700         0.000355817051
    4          1.155542559400        -0.003520206518
    5          0.524557411800         0.001769466182
    6          0.107345726500         0.030868082842
    7          0.039432760200        -0.011316186208
    8          5.734184661900         0.003473443602
    9          2.248368629400        -0.021473805409
   10          0.983769783600        -0.044035518918
   11          5.734184661900        -0.002669242474
   12          2.248368629400         0.016502007816
   13          0.983769783600         0.033840042019
   14          5.734184661900        -0.012677943180
   15          2.248368629400         0.078378610972
   16          0.983769783600         0.160728047053
   17          5.734184661900        -0.006616362856
   18          2.248368629400         0.040904216321
   19          0.983769783600         0.083880726183
 P 19
    1         11.187208671000         0.060761597096
    2          6.247768873400        -0.259504027873
    3          1.627947285900         0.546476734422
    4          0.793264935400         0.573233781947
    5         11.187208671000        -0.005910035477
    6          6.247768873400         0.025240910123
    7          1.627947285900        -0.053153587831
    8          0.793264935400        -0.055756137923
    9         11.187208671000        -0.061544903917
   10          6.247768873400         0.262849418461
   11          1.627947285900        -0.553521627476
   12          0.793264935400        -0.580623612904
   13          0.367072768600        -1.586261611335
   14          0.367072768600         0.154289269002
   15          0.367072768600         1.606710868741
   16          0.115000000000         0.943327969315
   17          0.115000000000        -0.091753706813
   18          0.115000000000        -0.955488861519
   19          0.037000000000        -0.318117783278
 D 19
    1         16.000000000000         0.000345860294
    2         13.910581694000        -0.000646829921
    3          4.796797140700         0.003305788404
    4          1.155542559400        -0.048734274787
    5          0.524557411800         0.106611538893
    6          0.107345726500        -0.201788925116
    7          0.039432760200         0.225393519174
    8          5.734184661900         0.016341132072
    9          2.248368629400        -0.101025475135
   10          0.983769783600        -0.207169113100
   11          5.734184661900        -0.011505220262
   12          2.248368629400         0.071128508013
   13          0.983769783600         0.145860535686
   14          5.734184661900        -0.059613406276
   15          2.248368629400         0.368546846513
   16          0.983769783600         0.755765050604
   17          5.734184661900        -0.030927411852
   18          2.248368629400         0.191201959777
   19          0.983769783600         0.392090612561
 end
-------------------------------------------
RADIAL EXPECTATION VALUES <R**-3> TO <R**3>
-------------------------------------------
   0 :     0.000026     1.233053     1.056500     1.043717     1.200372     1.520980
   1 :     1.294281     1.057154     0.971817     1.150099     1.478154     2.123308
   2 :     1.293357     1.056531     0.971469     1.150706     1.480058     2.128345
   3 :     1.290922     1.054889     0.970551     1.152305     1.485071     2.141603
   4 :     0.645641     0.624630     0.721976     1.668750     3.359141    40.455716
   5 :     0.662641     0.638074     0.731600     1.635901     3.206806    37.398720
   6 :     0.662844     0.638187     0.731689     1.635542     3.204944    37.409675
   7 :     0.657903     0.634330     0.728979     1.644435     3.245476    38.200493
   8 :     0.656156     0.632958     0.728007     1.647683     3.260402    38.493845
   9 :     0.000542     0.166211     0.347835     3.479058    13.979331    63.860723
  10 :     0.023644     0.053433     0.204554     5.582289    34.341510   229.008124
  11 :     0.023399     0.053063     0.203933     5.594882    34.475623   230.174220
  12 :     0.022705     0.052041     0.202234     5.629157    34.840824   233.351886
  13 :     0.000112     0.113992     0.264484     5.080144    30.300148   197.888572
  14 :     0.090674     0.129641     0.301173     4.395788    24.561720   164.212191
  15 :     0.091034     0.130021     0.301716     4.384718    24.441132   163.148886
  16 :     0.091945     0.131003     0.303153     4.354760    24.113590   160.254486
  17 :     0.149205     0.183255     0.354922     3.449058    13.115831   263.993387
  18 :     0.149283     0.183311     0.354965     3.448914    13.115222   263.985148
  19 :     0.164201     0.195589     0.364132     3.413975    12.943142   260.365780
  20 :     0.151555     0.185293     0.356488     3.443649    13.092532   263.589811
  21 :     0.152398     0.186028     0.357055     3.441670    13.083924   263.437785
  22 :     0.553101     0.490145     0.591247     2.420397     8.449440    41.366617
  23 :     0.553909     0.490757     0.591674     2.418267     8.434011    41.258789
  24 :     0.556127     0.492440     0.592854     2.412351     8.391338    40.962266
  25 :     0.003715     0.753689     0.734846     2.005737     6.106283    27.463142
  26 :     0.848882     0.688822     0.709023     1.973049     5.166701    83.630822
  27 :     0.849534     0.688813     0.709028     1.972978     5.165955    83.654084
  28 :     0.848358     0.690324     0.709645     1.974778     5.186033    84.038118
  29 :     0.852203     0.690688     0.710214     1.969350     5.148113    83.258602
  30 :     0.853107     0.691324     0.710620     1.968081     5.141795    83.117277
  31 :     0.000000     5.596849     2.093081     0.619129     0.680224     1.848445
  32 :     0.000000    56.363631     5.982519     0.234895     0.105996     0.190248
Making the total density                ... o.k.
Making exponents                        ... done
Making rho(0)                           ... done (         0.000358760)
Integral calculation                    ... Solving the equation system             ... done
atomic density will be written to file 15h_def2tzvp_atom44.adf

-------
TIMINGS
-------

Total SCF time: 0 days 0 hours 0 min 0 sec 

Total time                  ....       0.611 sec
Sum of individual times     ....       0.550 sec  ( 90.0%)

SCF preparation             ....       0.037 sec  (  6.0%)
Fock matrix formation       ....       0.455 sec  ( 74.5%)
  Startup                   ....       0.002 sec  (  0.4% of F)
  Coulomb+Exchange Fock     ....       0.453 sec  ( 99.6% of F)
Diagonalization             ....       0.000 sec  (  0.0%)
Density matrix formation    ....       0.009 sec  (  1.5%)
Total Energy calculation    ....       0.002 sec  (  0.3%)
Population analysis         ....       0.000 sec  (  0.0%)
Orbital Transformation      ....       0.001 sec  (  0.2%)
Orbital Orthonormalization  ....       0.000 sec  (  0.0%)
DIIS solution               ....       0.046 sec  (  7.5%)
SOSCF solution              ....       0.000 sec  (  0.0%)
Finished LeanSCF after   0.6 sec

Maximum memory used throughout the entire LEANSCF-calculation: 5.9 MB

-------------------------   --------------------
FINAL SINGLE POINT ENERGY       -94.088759369224
-------------------------   --------------------


------------------------------------------------------------------------------
                              ORCA PROPERTY CALCULATIONS
------------------------------------------------------------------------------

GBWName                                 ... 15h_def2tzvp_atom44.gbw
Number of atoms                         ...      1
Number of basis functions               ...     33
Max core memory                         ...   4096 MB

Electric properties:
Dipole moment                           ... YES
Quadrupole moment                       ...  NO
Static polarizability (Dipole/Dipole)   ...  NO
Static polarizability (Dipole/Quad.)    ...  NO
Static polarizability (Quad./Quad.)     ...  NO
Static polarizability (Velocity)        ...  NO
Static hyperpolarizability              ...  NO

Atomic electric properties:
Dipole moment                           ...  NO
Quadrupole moment                       ...  NO
Static polarizability                   ...  NO

Choice of electric origin               ... Center of mass
Position of electric origin             ...     0.000000     0.000000     0.000000

General magnetic properties:
Magnetizability                         ...  NO

EPR properties:
g-Tensor (aka g-matrix)                 ...  NO
Zero-Field splitting spin-orbit         ...  NO
Zero-field splitting spin-spin          ...  NO
Hyperfine couplings                     ...  NO (   0 nuclei)
Quadrupole couplings                    ...  NO (   0 nuclei)
Contact density                         ...  NO (   0 nuclei)

NMR properties:
Chemical shifts                         ...  NO (   0 nuclei)
Spin-rotation constants                 ...  NO (   0 nuclei)
Spin-spin couplings                     ...  NO (   0 nuclei,    0 pairs)

Choice of magnetic origin               ... GIAO
Position of magnetic origin             ...     0.000000     0.000000     0.000000

Properties with geometric perturbations:
SCF Hessian                             ...  NO
IR spectrum                             ...  NO
VCD spectrum                            ...  NO
X-ray spectroscopy properties:
SCF XES/XAS/RIXS spectra                ...  NO

SCF SOC stabilization energy            ...  NO
Diagonal Born-Oppenheimer correction    ...  NO

-------------
DIPOLE MOMENT
-------------

Method             : SCF
Type of density    : Electron Density
Multiplicity       :   5
Irrep              :   0
Energy             :   -94.0887593692239790 Eh
Basis              : AO
                                X                 Y                 Z
Electronic contribution:      0.000000000      -0.000000000      -0.000000000
Nuclear contribution   :      0.000000000       0.000000000       0.000000000
                        -----------------------------------------
Total Dipole Moment    :      0.000000000      -0.000000000      -0.000000000
                        -----------------------------------------
Magnitude (a.u.)       :      0.000000000
Magnitude (Debye)      :      0.000000000



--------------------
Rotational spectrum 
--------------------
 
Rotational constants in cm-1:             0.000000             0.000000             0.000000 
Rotational constants in MHz :             0.000000             0.000000             0.000000 

Dipole components along the rotational axes: 
x,y,z [a.u.] :     0.000000    -0.000000    -0.000000 
x,y,z [Debye]:     0.000000    -0.000000    -0.000000 

 

Dipole moment calculation done in   0.0 sec 

Maximum memory used throughout the entire PROP-calculation: 1.6 MB

--------------------------------
SUGGESTED CITATIONS FOR THIS RUN
--------------------------------

Below you find a list of papers that are relevant to this ORCA run
We neither can nor want to force you to cite these papers, but we appreciate if you do
You receive ORCA, which is the product of decades of hard work by many enthusiastic individuals, for free
The only thing we kindly ask in return is that you cite our papers,
We deeply appreciate it, if you show your appreciation for ORCA by not just citing the generic ORCA reference.

Please note that relegating all ORCA citations to the supporting information does *not* help us.
SI sections are not indexed - citations you put there will not count into any citation statistics
But we need these citations in order to attract the funding resources that allow us to do what we are doing

Therefore, if you are a happy ORCA user, please consider citing a few of the papers listed below in the main body of your paper

In addition to the list printed below, the program has created the file 15h_def2tzvp_atom44.bibtex that contains the list in bibtex format
You can import this file easily into all common literature databanks and citation aid programs

It goes without saying that in many instances, there are alternative algorithms to achieve similar
results as the ones you have gotten from ORCA. It is, of course, also the case that in some instances
ORCA just re-implements algorithms worked out by others. We are fully aware of that and we are also
fully appreciative of our colleagues work. Hence this citation list should not be read as indicating
that the listed papers, which are focused on our own work, are the only ones worth citing. It simply
meant to make it easier for users to cite ORCA specific papers. It is not a substitute for doing your
own literature research and citing the relevant literature in a scientifically appropriate manner.

List of essential papers. We consider these as the minimum necessary citations

  1. Neese, F.
     Software update: the ORCA program system, version 6.0
     WIRES Comput. Molec. Sci. 2025 15(1), e70019
     doi.org/10.1002/wcms.70019

List of papers to cite with high priority. The work reported in these papers was absolutely
necessary for this run to complete.
Our perspective: the developers of density functionals and basis sets usually get cited in chemistry papers
Good! But without the algorithms to do something with them, the functionals or basis sets would not do anything.
Hence, in our opinion, the algorithm design and method developments papers are equally worthy of getting cited

  1. Neese, F.
     The SHARK Integral Generation and Digestion System
     J. Comp. Chem. 2022 44(3), 381
     doi.org/10.1002/jcc.26942

List of suggested additional citations. These are papers that are important in the 'surrounding' of 
of this run, or papers that preceded the highly important papers. If you like your results we are grateful for a citation.

  1. Neese, F.
     The ORCA program system
     WIRES Comput. Molec. Sci. 2012 2(1), 73-78
     doi.org/10.1002/wcms.81
  2. Neese, F.
     Software update: the ORCA program system, version 4.0
     WIRES Comput. Molec. Sci. 2018 8(1), 1-6
     doi.org/10.1002/wcms.1327
  3. Neese, F.; Wennmohs, F.; Becker, U.; Riplinger, C.
     The ORCA quantum chemistry program package
     J. Chem. Phys. 2020 152(22), 224108
     doi.org/10.1063/5.0004608
  4. Neese, F.
     Software update: The ORCA program system—Version 5.0
     WIRES Comput. Molec. Sci. 2022 12(1), e1606
     doi.org/10.1002/wcms.1606

List of optional additional citations

  1. Neese, F.
     Approximate second-order SCF convergence for spin unrestricted wavefunctions
     Chem. Phys. Lett. 2000 325(1-3), 93-98
     doi.org/10.1016/s0009-2614(00)00662-x

Timings for individual modules:

Sum of individual times          ...        1.202 sec (=   0.020 min)
Startup calculation              ...        0.415 sec (=   0.007 min)  34.5 %
SCF iterations                   ...        0.711 sec (=   0.012 min)  59.1 %
Property calculations            ...        0.077 sec (=   0.001 min)   6.4 %
                             ****ORCA TERMINATED NORMALLY****
TOTAL RUN TIME: 0 days 0 hours 0 minutes 1 seconds 337 msec
