
                                 *****************
                                 * O   R   C   A *
                                 *****************

                                            #,                                       
                                            ###                                      
                                            ####                                     
                                            #####                                    
                                            ######                                   
                                           ########,                                 
                                     ,,################,,,,,                         
                               ,,#################################,,                 
                          ,,##########################################,,             
                       ,#########################################, ''#####,          
                    ,#############################################,,   '####,        
                  ,##################################################,,,,####,       
                ,###########''''           ''''###############################       
              ,#####''   ,,,,##########,,,,          '''####'''          '####       
            ,##' ,,,,###########################,,,                        '##       
           ' ,,###''''                  '''############,,,                           
         ,,##''                                '''############,,,,        ,,,,,,###''
      ,#''                                            '''#######################'''  
     '                                                          ''''####''''         
             ,#######,   #######,   ,#######,      ##                                
            ,#'     '#,  ##    ##  ,#'     '#,    #''#        ,####,    ,#,          
            ##       ##  ##   ,#'  ##            #'  '#       #'       ,# #          
            ##       ##  #######   ##           ,######,      #####,      #          
            '#,     ,#'  ##    ##  '#,     ,#' ,#      #,     #,   #      #          
             '#######'   ##     ##  '#######'  #'      '#     '####' #    #          



                #########################################################
                #                        -***-                          #
                #          Department of theory and spectroscopy        #
                #                                                       #
                #                      Frank Neese                      #
                #                                                       #
                #     Directorship, Architecture, Infrastructure        #
                #                    SHARK, DRIVERS                     #
                #        Core code/Algorithms in most modules           #
                #                                                       #
                #        Max Planck Institute fuer Kohlenforschung      #
                #                Kaiser Wilhelm Platz 1                 #
                #                 D-45470 Muelheim/Ruhr                 #
                #                      Germany                          #
                #                                                       #
                #                  All rights reserved                  #
                #                        -***-                          #
                #########################################################


                         Program Version 6.1.1  -  RELEASE   -
                                (GIT: $487d211c$)
                          ($2025-11-21 10:33:24 +0100$)


 With contributions from (in alphabetic order):
[Max-Planck-Institut fuer Kohlenforschung]                               
  Daniel Aravena         : Magnetic Suceptibility                        
  Michael Atanasov       : Ab Initio Ligand Field Theory (pilot matlab implementation)
  Alexander A. Auer      : GIAO ZORA, VPT2 properties, NMR spectrum      
  Ute Becker             : All parallelization in ORCA, NUMFREQ, NUMCALC 
  Giovanni Bistoni       : ED, misc. LED, open-shell LED, HFLD           
  Dmytro Bykov           : pre 5.0 version of the SCF Hessian            
  Marcos Casanova-Páez   : Triplet and SCS-CIS(D). UHF-(DLPNO)-IP/EA/STEOM-CCSD. UHF-CVS-IP/STEOM-CCSD   
  Vijay G. Chilkuri      : MRCI spin determinant printing, contributions to CSF-ICE 
  Pauline Colinet        : FMM embedding                                 
  Dipayan Datta          : RHF DLPNO-CCSD density                        
  Achintya Kumar Dutta   : EOM-CC, STEOM-CC                              
  Nicolas Foglia         : Exact transition moments, OPA infrastructure, MCD improvements    
  Dmitry Ganyushin       : Spin-Orbit,Spin-Spin,Magnetic field MRCI      
  Miquel Garcia-Rates    : C-PCM and meta-GGA Hessian, CCSD/C-PCM, Gaussian charge scheme 
  Tiago L. C. Gouveia    : GS-ROHF, GS-ROCIS                             
  Yang Guo               : DLPNO-NEVPT2, F12-NEVPT2, CIM, IAO-localization        
  Andreas Hansen         : Spin unrestricted coupled pair/coupled cluster methods 
  Ingolf Harden          : AUTO-CI MPn and infrastructure                
  Benjamin Helmich-Paris : MC-RPA, TRAH-(SCF,CASSCF), AVAS, COSX integrals, SCF dyn. polar., MC-PDFT, srDFT 
  Lee Huntington         : MR-EOM, pCC                                   
  Robert Izsak           : Overlap fitted RIJCOSX, COSX-SCS-MP3, EOM     
  Riya Kayal             : Wick's Theorem for AUTO-CI, AUTO-CI UHF-CCSDT 
  Emily Kempfer          : AUTO-CI RHF CISDT and CCSDT, approximate NEVPT4
  Christian Kollmar      : KDIIS, OOCD, Brueckner-CCSD(T), CCSD density, CASPT2, CASPT2-K, improved NEVPT2 
  Axel Koslowski         : Symmetry handling                             
  Simone Kossmann        : meta-GGA functionals, TD-DFT gradient, OOMP2, (MP2 Hessian; deprecated post 5.0) 
  Lucas Lang             : DCDCAS, Hyperfine gauge corrections, ICE-SOC+SSC
  Marvin Lechner         : AUTO-CI (C++ implementation), FIC-MRCC        
  Spencer Leger          : CASSCF response                               
  Dagmar Lenk            : GEPOL surface, SMD, ORCA-2-JSON               
  Dimitrios Liakos       : Extrapolation schemes; Compound Job, Property file
  Dimitrios Manganas     : Further ROCIS development; embedding schemes. LFT, Crystal Embedding 
  Dimitrios Pantazis     : SARC Basis sets                               
  Anastasios Papadopoulos: AUTO-CI, single reference methods and gradients 
  Taras Petrenko         : pre 6.0 DFT Hessian and TD-DFT gradient,  ECA, NRVS 
  Petra Pikulova         : Analytic Raman intensities                    
  Peter Pinski           : DLPNO-MP2, DLPNO-MP2 Gradient                 
  Shashank Vittal Rao    : ES-AILFT, MagRelax                            
  Christoph Reimann      : Effective Core Potentials                     
  Marius Retegan         : Local ZFS, SOC                                
  Christoph Riplinger    : Optimizer, TS searches, QM/MM, DLPNO-CCSD(T), (RO)-DLPNO pert. Triples 
  Michael Roemelt        : Original ROCIS implementation, recursive CI coupling coefficients
  Masaaki Saitow         : Open-shell DLPNO-CCSD energy and density      
  Barbara Sandhoefer     : DKH picture change effects                    
  Yorick L. A. Schmerwitz: GMF and freeze-and-release deltaSCF, NEB S-IDPP initial path                    
  Kantharuban Sivalingam : CASSCF convergence/infrastructure, NEVPT2, NEVPT3, NEVPT4(SD), FIC-MRCI and CEPA variants
  Bernardo de Souza      : ESD, SOC TD-DFT                               
  Georgi L. Stoychev     : AutoAux, RI-MP2 NMR, DLPNO-MP2 response, X2C  
  Van Anh Tran           : RI-MP2 g-tensors                              
  Willem Van den Heuvel  : Paramagnetic NMR                              
  Zikuan Wang            : NOTCH, Electric field optimization            
  Frank Wennmohs         : Technical directorship and infrastructure     
  Hang Xu                : AUTO-CI-Response properties                   
                                                                         
[FACCTs GmbH]                                                            
  Markus Bursch, Nicolas Foglia, Miquel Garcia-Rates, Ingolf Harden, Hagen Neugebauer, Anastasios Papadopoulos, 
  Christoph Riplinger, Bernardo de Souza, Georgi L. Stoychev                                                    
                                                                 
  APM, various basis sets, CI-OPT, improved COSX, DLPNO-Multilevel,           
  DOCKER, DRACO, updates on ESD, Fragmentator, GOAT, IRC, LR-CPCM, L-BFGS, MBIS, meta-GGA TD-DFT gradient, ML-optimized integration grids, 
  MM, NACMEs, nearIR, NEB, NEB-TS, NL-DFT gradient (VV10), 2- and 3-layer-ONIOM, interface openCOSMO-RS, QMMM,   
  Crystal-QMMM, RESP, rigid body optimization, SF, symmetry and pop. for TD-DFT, various functionals, SOLVATOR                                   
                                                                         
[Other institutions]                                                     
  V. Asgeirsson          : NEB                                           
  Christoph Bannwarth    : sTDA-DFT, sTD-DFT, PBEh-3c, B97-3c, D3        
  Giovanni Bistoni       : ETS/NOCV, ADLD/ADEX, COVALED                  
  Martin Brehm           : Molecular dynamics                            
  Ronald Cardenas        : ETS/NOCV                                      
  Martina Colucci        : COVALED                                       
  Sebastian Ehlert       : rSCAN, r2SCAN, r2SCAN-3c, D4, dhf basis sets  
  Marvin Friede          : D4 for Fr, Ra, Ac-Lr                          
  Lars Goerigk           : TD-DFT with DH, B97 family of functionals     
  Stefan Grimme          : VdW corrections, initial TS optimization, DFT functionals, gCP, sTDA/sTD-DF 
  Waldemar Hujo          : DFT-NL                                        
  H. Jonsson             : NEB                                           
  Holger Kruse           : gCP                                           
  Marcel Mueller         : wB97X-3c, vDZP basis set                      
  Hagen Neugebauer       : wr2SCAN, Native XTB                           
  Gianluca Regni         : ADLD/ADEX                                     
  Tobias Risthaus        : pre 6.0 range-separated hybrid DFT and stability analysis
  Lukas Wittmann         : regularized MP2, r2SCAN double-hybrids, wr2SCAN        
                                                                         
We gratefully acknowledge several colleagues who have allowed us to      
interface, adapt or use parts of their codes:                            
  Ed Valeev, F. Pavosevic, A. Kumar             : LibInt (2-el integral package), F12 methods 
  Garnet Chan, S. Sharma, J. Yang, R. Olivares  : DMRG                   
  Ulf Ekstrom                                   : XCFun DFT Library      
  Mihaly Kallay                                 : mrcc  (arbitrary order and MRCC methods)
  Frank Weinhold                                : gennbo (NPA and NBO analysis)           
  Simon Mueller                                 : openCOSMO-RS                            
  Christopher J. Cramer and Donald G. Truhlar   : smd solvation model                     
  S Lehtola, MJT Oliveira, MAL Marques          : LibXC Library                           
  Liviu Ungur et al                             : ANISO software                          


 Your calculation uses the libint2 library for the computation of 2-el integrals
 For citations please refer to: http://libint.valeyev.net

 Your ORCA version has been built with support for libXC version: 7.0.0
 For citations please refer to: https://libxc.gitlab.io

 This ORCA versions uses:
   CBLAS   interface :  Fast vector & matrix operations
   LAPACKE interface :  Fast linear algebra routines
   SCALAPACK package :  Parallel linear algebra routines
   Shared memory     :  Shared parallel matrices
   BLAS/LAPACK       :  OpenBLAS 0.3.29  USE64BITINT DYNAMIC_ARCH NO_AFFINITY Haswell SINGLE_THREADED
        Core in use  :  Haswell
   Copyright (c) 2011-2014, The OpenBLAS Project


  ***********************************
  * Starting time: Thu Jul  9 11:51:48 2026
  * Host name:     ylva-work-pc
  * Process ID:    119836
  * Working dir.:  /home/ylvao/work/projects/bsse
  ***********************************

Warning: RI is on but no J-basis has been assigned. Assigning Def2/J (nothing to worry about!)
================================================================================

cite the ECPs for Ru [Def2-ECP] as follows:
Ce-Yb(ecp-28): M. Dolg, H. Stoll, H.Preuss, J. Chem. Phys., 1989, 90, 1730-1734.
Y-Cd(ecp-28), Hf-Hg(ecp-46): D. Andrae,U. Haeussermann, M. Dolg, H. Stoll, H. Preuss, Theor. Chim. Acta, 1990, 77, 123-141.
In-Sb(ecp-28), Tl-Bi(ecp-46): B. Metz, H. Stoll, M. Dolg, J. Chem. Phys., 2000, 113, 2563-2569.
Te-Xe(ecp-28), Po-Rn(ecp-46): K. A. Peterson, D. Figgen, E. Goll, H. Stoll, M. Dolg, J. Chem. Phys., 2003, 119, 11113-11123.
Rb(ecp-28), Cs(ecp-46): T. Leininger, A. Nicklass, W. Kuechle, H. Stoll, M. Dolg, A. Bergner, Chem. Phys. Lett., 1996, 255, 274-280.
Sr(ecp-28), Ba(ecp-46): M. Kaupp, P. V. Schleyer, H. Stoll and H. Preuss, J. Chem. Phys., 1991, 94, 1360-1366.
La(ecp-46): M. Dolg, H. Stoll, A. Savin, H. Preuss, Theor. Chim. Acta, 1989, 75, 173-194.
Lu(ecp-28): X. Cao, M. Dolg, J. Chem. Phys., 2001, 115, 7348-7355.

ECP parameters for Ru [Def2-ECP] have been obtained from:
TURBOMOLE (7.0.2)

----- Orbital basis set information -----
Your calculation utilizes the basis: def2-SVP
   F. Weigend and R. Ahlrichs, Phys. Chem. Chem. Phys. 7, 3297 (2005).

----- AuxJ basis set information -----
Your calculation utilizes the auxiliary basis: def2/J
   H-Rn: F. Weigend, Phys. Chem. Chem. Phys. 8, 1057 (2006).
   Fr-Lr: K. Eichkorn, F. Weigend, O. Treutler, R. Ahlrichs; Theor. Chem. Acc. 97, 119 (1997).

================================================================================
                                        WARNINGS
                       Please study these warnings very carefully!
================================================================================


================================================================================
                                       INPUT FILE
================================================================================
NAME = 15h_def2svp.inp
|  1> ! BP86 def2-SVP VeryTightSCF defgrid3
|  2> 
|  3> *xyz 0 1
|  4> Ru -0.003858 -0.163889 -0.271867
|  5> P -2.297768 -0.007621 -0.144184
|  6> P 2.287169 -0.017737 -0.156253
|  7> C -2.911647 -0.599535 1.515487
|  8> C -4.685018 -2.651731 -3.192189
|  9> C -3.814101 -3.233195 -2.253048
| 10> C -3.131150 -2.427303 -1.330945
| 11> C -3.114479 1.658920 -0.250013
| 12> C -2.362022 2.783003 -0.650011
| 13> C -2.965845 4.049809 -0.733501
| 14> C -4.323605 4.206007 -0.412900
| 15> C -5.079741 3.093236 -0.002279
| 16> C -4.480344 1.827521 0.080460
| 17> C 3.095834 1.619147 -0.504111
| 18> C -2.171085 -0.211966 2.659457
| 19> C 2.525407 2.481327 -1.466488
| 20> C 3.129740 3.712566 -1.768240
| 21> C 4.306822 4.101575 -1.107417
| 22> C 4.880093 3.254350 -0.144042
| 23> C 4.281389 2.019500 0.155693
| 24> C 3.362704 -1.179941 -1.143988
| 25> C 2.942300 -2.524227 -1.283972
| 26> C 3.712726 -3.442373 -2.014309
| 27> C 4.905709 -3.029079 -2.631533
| 28> C 5.326691 -1.695059 -2.509044
| 29> C -2.568324 -0.625371 3.940427
| 30> C 4.565187 -0.776227 -1.766802
| 31> C 2.861239 -0.364185 1.583653
| 32> C 2.371020 0.461983 2.626799
| 33> C 2.717629 0.203094 3.961166
| 34> C 3.546125 -0.888449 4.277679
| 35> C 4.031734 -1.715720 3.252536
| 36> C 3.695943 -1.456310 1.912370
| 37> C -3.707207 -1.433122 4.099439
| 38> C -4.445772 -1.827475 2.971604
| 39> C -4.052788 -1.416625 1.686379
| 40> C -3.323064 -1.022952 -1.319037
| 41> C -4.200392 -0.449774 -2.266112
| 42> C -4.872058 -1.261108 -3.197986
| 43> H -1.298755 2.649696 -0.870975
| 44> H -2.370191 4.915014 -1.041918
| 45> H -4.792336 5.193394 -0.473894
| 46> H -6.135714 3.213453 0.260137
| 47> H -5.065805 0.965746 0.415281
| 48> H -2.437173 -2.881612 -0.614882
| 49> H -3.660763 -4.317245 -2.244132
| 50> H -5.210149 -3.281332 -3.917206
| 51> H -5.544384 -0.800435 -3.929013
| 52> H -4.359007 0.632153 -2.270941
| 53> H -4.621891 -1.742439 0.810763
| 54> H -1.282015 0.416196 2.530447
| 55> H -1.984390 -0.319193 4.814389
| 56> H -4.015448 -1.757570 5.098333
| 57> H -5.331982 -2.459566 3.090250
| 58> H 4.724103 1.366408 0.913741
| 59> H 5.793845 3.555443 0.378349
| 60> H 4.773395 5.064508 -1.338103
| 61> H 2.675337 4.371244 -2.515380
| 62> H 1.596354 2.180557 -1.961758
| 63> H 1.997789 -2.839423 -0.827035
| 64> H 4.900859 0.260216 -1.672911
| 65> H 6.251546 -1.364623 -2.992861
| 66> H 3.374252 -4.479068 -2.110682
| 67> H 5.500286 -3.742732 -3.210487
| 68> H 4.081472 -2.100363 1.116945
| 69> H 1.717455 1.304389 2.376404
| 70> H 2.338921 0.854023 4.755956
| 71> H 3.811124 -1.091676 5.320045
| 72> H 4.679547 -2.565105 3.492624
| 73> H -0.073143 -1.801039 -0.912445
| 74> H -0.035696 -1.231505 -1.614805
| 75> H -0.002430 0.718155 -1.563089
| 76> H 0.035829 1.263937 0.526471
| 77> **                         ****END OF INPUT****
================================================================================

                       ****************************
                       * Single Point Calculation *
                       ****************************

---------------------------------
CARTESIAN COORDINATES (ANGSTROEM)
---------------------------------
  Ru    -0.003858   -0.163889   -0.271867
  P     -2.297768   -0.007621   -0.144184
  P      2.287169   -0.017737   -0.156253
  C     -2.911647   -0.599535    1.515487
  C     -4.685018   -2.651731   -3.192189
  C     -3.814101   -3.233195   -2.253048
  C     -3.131150   -2.427303   -1.330945
  C     -3.114479    1.658920   -0.250013
  C     -2.362022    2.783003   -0.650011
  C     -2.965845    4.049809   -0.733501
  C     -4.323605    4.206007   -0.412900
  C     -5.079741    3.093236   -0.002279
  C     -4.480344    1.827521    0.080460
  C      3.095834    1.619147   -0.504111
  C     -2.171085   -0.211966    2.659457
  C      2.525407    2.481327   -1.466488
  C      3.129740    3.712566   -1.768240
  C      4.306822    4.101575   -1.107417
  C      4.880093    3.254350   -0.144042
  C      4.281389    2.019500    0.155693
  C      3.362704   -1.179941   -1.143988
  C      2.942300   -2.524227   -1.283972
  C      3.712726   -3.442373   -2.014309
  C      4.905709   -3.029079   -2.631533
  C      5.326691   -1.695059   -2.509044
  C     -2.568324   -0.625371    3.940427
  C      4.565187   -0.776227   -1.766802
  C      2.861239   -0.364185    1.583653
  C      2.371020    0.461983    2.626799
  C      2.717629    0.203094    3.961166
  C      3.546125   -0.888449    4.277679
  C      4.031734   -1.715720    3.252536
  C      3.695943   -1.456310    1.912370
  C     -3.707207   -1.433122    4.099439
  C     -4.445772   -1.827475    2.971604
  C     -4.052788   -1.416625    1.686379
  C     -3.323064   -1.022952   -1.319037
  C     -4.200392   -0.449774   -2.266112
  C     -4.872058   -1.261108   -3.197986
  H     -1.298755    2.649696   -0.870975
  H     -2.370191    4.915014   -1.041918
  H     -4.792336    5.193394   -0.473894
  H     -6.135714    3.213453    0.260137
  H     -5.065805    0.965746    0.415281
  H     -2.437173   -2.881612   -0.614882
  H     -3.660763   -4.317245   -2.244132
  H     -5.210149   -3.281332   -3.917206
  H     -5.544384   -0.800435   -3.929013
  H     -4.359007    0.632153   -2.270941
  H     -4.621891   -1.742439    0.810763
  H     -1.282015    0.416196    2.530447
  H     -1.984390   -0.319193    4.814389
  H     -4.015448   -1.757570    5.098333
  H     -5.331982   -2.459566    3.090250
  H      4.724103    1.366408    0.913741
  H      5.793845    3.555443    0.378349
  H      4.773395    5.064508   -1.338103
  H      2.675337    4.371244   -2.515380
  H      1.596354    2.180557   -1.961758
  H      1.997789   -2.839423   -0.827035
  H      4.900859    0.260216   -1.672911
  H      6.251546   -1.364623   -2.992861
  H      3.374252   -4.479068   -2.110682
  H      5.500286   -3.742732   -3.210487
  H      4.081472   -2.100363    1.116945
  H      1.717455    1.304389    2.376404
  H      2.338921    0.854023    4.755956
  H      3.811124   -1.091676    5.320045
  H      4.679547   -2.565105    3.492624
  H     -0.073143   -1.801039   -0.912445
  H     -0.035696   -1.231505   -1.614805
  H     -0.002430    0.718155   -1.563089
  H      0.035829    1.263937    0.526471

----------------------------
CARTESIAN COORDINATES (A.U.)
----------------------------
  NO LB      ZA    FRAG     MASS         X           Y           Z
   0 Ru   16.0000*   0   101.070   -0.007291   -0.309705   -0.513754
   1 P    15.0000    0    30.974   -4.342152   -0.014402   -0.272468
   2 P    15.0000    0    30.974    4.322123   -0.033518   -0.295275
   3 C     6.0000    0    12.011   -5.502215   -1.132957    2.863855
   4 C     6.0000    0    12.011   -8.853401   -5.011045   -6.032363
   5 C     6.0000    0    12.011   -7.207606   -6.109853   -4.257644
   6 C     6.0000    0    12.011   -5.917016   -4.586938   -2.515122
   7 C     6.0000    0    12.011   -5.885512    3.134904   -0.472456
   8 C     6.0000    0    12.011   -4.463575    5.259113   -1.228343
   9 C     6.0000    0    12.011   -5.604635    7.653030   -1.386116
  10 C     6.0000    0    12.011   -8.170429    7.948201   -0.780268
  11 C     6.0000    0    12.011   -9.599319    5.845369   -0.004307
  12 C     6.0000    0    12.011   -8.466623    3.453514    0.152047
  13 C     6.0000    0    12.011    5.850278    3.059744   -0.952632
  14 C     6.0000    0    12.011   -4.102756   -0.400558    5.025645
  15 C     6.0000    0    12.011    4.772328    4.689028   -2.771261
  16 C     6.0000    0    12.011    5.914351    7.015733   -3.341489
  17 C     6.0000    0    12.011    8.138714    7.750853   -2.092715
  18 C     6.0000    0    12.011    9.222039    6.149830   -0.272200
  19 C     6.0000    0    12.011    8.090653    3.816302    0.294217
  20 C     6.0000    0    12.011    6.354590   -2.229765   -2.161824
  21 C     6.0000    0    12.011    5.560141   -4.770098   -2.426355
  22 C     6.0000    0    12.011    7.016035   -6.505142   -3.806492
  23 C     6.0000    0    12.011    9.270447   -5.724130   -4.972877
  24 C     6.0000    0    12.011   10.065987   -3.203197   -4.741406
  25 C     6.0000    0    12.011   -4.853429   -1.181780    7.446328
  26 C     6.0000    0    12.011    8.626953   -1.466856   -3.338772
  27 C     6.0000    0    12.011    5.406958   -0.688210    2.992670
  28 C     6.0000    0    12.011    4.480578    0.873021    4.963931
  29 C     6.0000    0    12.011    5.135575    0.383792    7.485519
  30 C     6.0000    0    12.011    6.701205   -1.678925    8.083642
  31 C     6.0000    0    12.011    7.618873   -3.242241    6.146402
  32 C     6.0000    0    12.011    6.984320   -2.752027    3.613856
  33 C     6.0000    0    12.011   -7.005606   -2.708208    7.746817
  34 C     6.0000    0    12.011   -8.401292   -3.453427    5.615518
  35 C     6.0000    0    12.011   -7.658659   -2.677033    3.186794
  36 C     6.0000    0    12.011   -6.279681   -1.933099   -2.492619
  37 C     6.0000    0    12.011   -7.937591   -0.849950   -4.282331
  38 C     6.0000    0    12.011   -9.206855   -2.383149   -6.043318
  39 H     1.0000    0     1.008   -2.454291    5.007200   -1.645904
  40 H     1.0000    0     1.008   -4.479012    9.288030   -1.968940
  41 H     1.0000    0     1.008   -9.056203    9.814092   -0.895530
  42 H     1.0000    0     1.008  -11.594819    6.072546    0.491588
  43 H     1.0000    0     1.008   -9.572984    1.824995    0.784767
  44 H     1.0000    0     1.008   -4.605590   -5.445458   -1.161959
  45 H     1.0000    0     1.008   -6.917840   -8.158411   -4.240795
  46 H     1.0000    0     1.008   -9.845755   -6.200819   -7.402447
  47 H     1.0000    0     1.008  -10.477367   -1.512603   -7.424759
  48 H     1.0000    0     1.008   -8.237329    1.194596   -4.291457
  49 H     1.0000    0     1.008   -8.734108   -3.292733    1.532120
  50 H     1.0000    0     1.008   -2.422657    0.786496    4.781852
  51 H     1.0000    0     1.008   -3.749954   -0.603187    9.097877
  52 H     1.0000    0     1.008   -7.588097   -3.321326    9.634453
  53 H     1.0000    0     1.008  -10.075986   -4.647906    5.839726
  54 H     1.0000    0     1.008    8.927261    2.582137    1.726720
  55 H     1.0000    0     1.008   10.948780    6.718814    0.714976
  56 H     1.0000    0     1.008    9.020409    9.570533   -2.528648
  57 H     1.0000    0     1.008    5.055654    8.260454   -4.753379
  58 H     1.0000    0     1.008    3.016672    4.120656   -3.707185
  59 H     1.0000    0     1.008    3.775274   -5.365732   -1.562870
  60 H     1.0000    0     1.008    9.261281    0.491737   -3.161344
  61 H     1.0000    0     1.008   11.813710   -2.578764   -5.655688
  62 H     1.0000    0     1.008    6.376412   -8.464212   -3.988611
  63 H     1.0000    0     1.008   10.394034   -7.072738   -6.066941
  64 H     1.0000    0     1.008    7.712864   -3.969111    2.110720
  65 H     1.0000    0     1.008    3.245520    2.464938    4.490753
  66 H     1.0000    0     1.008    4.419920    1.613870    8.987454
  67 H     1.0000    0     1.008    7.201981   -2.062969   10.053428
  68 H     1.0000    0     1.008    8.843062   -4.847346    6.600103
  69 H     1.0000    0     1.008   -0.138220   -3.403470   -1.724271
  70 H     1.0000    0     1.008   -0.067456   -2.327207   -3.051539
  71 H     1.0000    0     1.008   -0.004592    1.357116   -2.953810
  72 H     1.0000    0     1.008    0.067707    2.388495    0.994886
* core charge reduced due to ECP

--------------------------------
INTERNAL COORDINATES (ANGSTROEM)
--------------------------------
 Ru     0   0   0     0.000000000000     0.00000000     0.00000000
 P      1   0   0     2.302769142666     0.00000000     0.00000000
 P      1   2   0     2.298593421819   170.32266066     0.00000000
 C      2   1   3     1.865936075614   110.82520720   287.45078086
 C      2   1   3     4.688348828172   115.65233116   170.20377413
 C      5   2   1     1.406620994464    58.92282170    60.14447602
 C      6   5   2     1.402197534827   120.20149621     1.37782858
 C      2   1   3     1.858917840961   119.69208873    44.29035749
 C      8   2   1     1.410585881023   119.74902353    11.59623616
 C      9   8   2     1.405834356197   120.38491940   180.05586508
 C     10   9   8     1.403814458540   120.14046221     0.28057060
 C     11  10   9     1.406630923369   119.90488293     0.24861884
 C     12  11  10     1.402910177793   120.08422791   359.67538394
 C      3   1   2     1.858583734957   118.70173616   307.31506304
 C      4   2   1     1.416795386252   117.35079399    41.61180746
 C     14   3   1     1.412413114092   119.30257327   325.85419906
 C     16  14   3     1.404358258962   120.51680914   181.24929254
 C     17  16  14     1.404826350171   120.14995026   359.63753352
 C     18  17  16     1.405176583455   119.82636451     0.09046500
 C     19  18  17     1.404685755727   120.16160922     0.19739150
 C      3   1   2     1.866310291475   120.54251695   181.43963248
 C     21   3   1     1.415429225807   118.20339899   322.42689438
 C     22  21   3     1.403545664509   120.64439034   180.08849546
 C     23  22  21     1.405341892530   120.14069449   359.14393745
 C     24  23  22     1.404221763058   119.70734579     0.29925664
 C     15   4   2     1.403419630063   120.56088512   180.34697434
 C     25  24  23     1.405369621418   120.31402080     0.37274022
 C      3   1   2     1.864632797749   109.99749314    63.87593661
 C     28   3   1     1.418105006514   118.14571869   301.40983335
 C     29  28   3     1.402746093878   120.45064628   176.77553356
 C     30  29  28     1.406432444888   120.19010063   359.39380368
 C     31  30  29     1.403962812460   119.78467380     0.32181966
 C     32  31  30     1.405736124362   120.31546661     0.12921901
 C     26  15   4     1.405276122986   120.13194434     0.14068703
 C     34  26  15     1.404636727079   119.77861887     0.10675201
 C     35  34  26     1.405360255373   120.34403636   359.89498893
 C      7   6   5     1.417453531888   120.59740754     0.94131641
 C     37   7   6     1.412511414075   118.71788372   359.10157207
 C      5   2   1     1.403157116982    60.76607340   238.48078465
 H      9   8   2     1.094135530377   118.59154584   358.73744835
 H     10   9   8     1.094762269002   119.68239487   179.79124833
 H     11  10   9     1.094697266904   120.11723028   179.73646706
 H     12  11  10     1.094711496639   120.10795216   179.26126550
 H     13  12  11     1.094315235747   119.99688609   179.03101013
 H      7   6   5     1.095786002821   119.99388255   181.30807524
 H      6   5   2     1.094877362904   120.09521428   181.84592555
 H      5   2   1     1.094444898865   178.06340011   359.81994773
 H     39   5   2     1.094825254520   120.10799086   178.05449589
 H     38  37   7     1.093502661540   119.63978470   180.04548219
 H     36  35  34     1.093954462791   119.96362011   178.88102045
 H     15   4   2     1.096210081711   119.05584289     0.34228873
 H     26  15   4     1.094775530181   119.68905009   179.87834016
 H     34  26  15     1.094563037025   120.12387080   179.84475804
 H     35  34  26     1.094981310204   120.04096220   179.79804712
 H     20  19  18     1.094148809150   120.00696977   180.63737678
 H     19  18  17     1.094756625481   120.12175348   180.38170428
 H     18  17  16     1.094598719812   120.10680556   180.42897752
 H     17  16  14     1.094786268499   119.70327799   180.09302000
 H     16  14   3     1.094940383130   118.89472496     2.17778557
 H     22  21   3     1.095555096518   119.21317936     0.98349851
 H     27  25  24     1.093483106277   119.91467814   179.79570098
 H     25  24  23     1.094816701832   120.09517562   180.40967323
 H     23  22  21     1.094800861723   119.70556718   179.84866346
 H     24  23  22     1.094536498914   120.11262626   180.69693824
 H     33  32  31     1.093680852569   120.03259144   179.64976463
 H     29  28   3     1.095213556383   119.09237138   356.82601807
 H     30  29  28     1.094906140455   119.69127582   179.48519839
 H     31  30  29     1.094555874081   120.06855311   180.31589689
 H     32  31  30     1.094878444823   120.10966409   179.81397968
 H      1   2   8     1.759375090141    92.52789278   206.84120734
 H     70   1   2     0.905030841776    72.26289240    93.31241454
 H      1   2   8     1.563732045590    90.48224292   309.83630704
 H      1   2   8     1.636339117203    86.43934276    34.66979334

---------------------------
INTERNAL COORDINATES (A.U.)
---------------------------
 Ru     0   0   0     0.000000000000     0.00000000     0.00000000
 P      1   0   0     4.351603029283     0.00000000     0.00000000
 P      1   2   0     4.343712060471   170.32266066     0.00000000
 C      2   1   3     3.526108166314   110.82520720   287.45078086
 C      2   1   3     8.859695305536   115.65233116   170.20377413
 C      5   2   1     2.658128453760    58.92282170    60.14447602
 C      6   5   2     2.649769326482   120.20149621     1.37782858
 C      2   1   3     3.512845624876   119.69208873    44.29035749
 C      8   2   1     2.665621003510   119.74902353    11.59623616
 C      9   8   2     2.656641922871   120.38491940   180.05586508
 C     10   9   8     2.652824869479   120.14046221     0.28057060
 C     11  10   9     2.658147216672   119.90488293     0.24861884
 C     12  11  10     2.651116026519   120.08422791   359.67538394
 C      3   1   2     3.512214256028   118.70173616   307.31506304
 C      4   2   1     2.677355267819   117.35079399    41.61180746
 C     14   3   1     2.669073973592   119.30257327   325.85419906
 C     16  14   3     2.653852503348   120.51680914   181.24929254
 C     17  16  14     2.654737067539   120.14995026   359.63753352
 C     18  17  16     2.655398912530   119.82636451     0.09046500
 C     19  18  17     2.654471382543   120.16160922     0.19739150
 C      3   1   2     3.526815331807   120.54251695   181.43963248
 C     21   3   1     2.674773598723   118.20339899   322.42689438
 C     22  21   3     2.652316922374   120.64439034   180.08849546
 C     23  22  21     2.655711301409   120.14069449   359.14393745
 C     24  23  22     2.653594563471   119.70734579     0.29925664
 C     15   4   2     2.652078751788   120.56088512   180.34697434
 C     25  24  23     2.655763701412   120.31402080     0.37274022
 C      3   1   2     3.523645328072   109.99749314    63.87593661
 C     28   3   1     2.679830091455   118.14571869   301.40983335
 C     29  28   3     2.650805952858   120.45064628   176.77553356
 C     30  29  28     2.657772146700   120.19010063   359.39380368
 C     31  30  29     2.653105217760   119.78467380     0.32181966
 C     32  31  30     2.656456291605   120.31546661     0.12921901
 C     26  15   4     2.655587014982   120.13194434     0.14068703
 C     34  26  15     2.654378731827   119.77861887     0.10675201
 C     35  34  26     2.655746002152   120.34403636   359.89498893
 C      7   6   5     2.678598982827   120.59740754     0.94131641
 C     37   7   6     2.669259733640   118.71788372   359.10157207
 C      5   2   1     2.651582673959    60.76607340   238.48078465
 H      9   8   2     2.067616505806   118.59154584   358.73744835
 H     10   9   8     2.068800870164   119.68239487   179.79124833
 H     11  10   9     2.068678034000   120.11723028   179.73646706
 H     12  11  10     2.068704924303   120.10795216   179.26126550
 H     13  12  11     2.067956099738   119.99688609   179.03101013
 H      7   6   5     2.070735446716   119.99388255   181.30807524
 H      6   5   2     2.069018366119   120.09521428   181.84592555
 H      5   2   1     2.068201127521   178.06340011   359.81994773
 H     39   5   2     2.068919895543   120.10799086   178.05449589
 H     38  37   7     2.066420557025   119.63978470   180.04548219
 H     36  35  34     2.067274337657   119.96362011   178.88102045
 H     15   4   2     2.071536839677   119.05584289     0.34228873
 H     26  15   4     2.068825930161   119.68905009   179.87834016
 H     34  26  15     2.068424376290   120.12387080   179.84475804
 H     35  34  26     2.069214798049   120.04096220   179.79804712
 H     20  19  18     2.067641599049   120.00696977   180.63737678
 H     19  18  17     2.068790205454   120.12175348   180.38170428
 H     18  17  16     2.068491806985   120.10680556   180.42897752
 H     17  16  14     2.068846222640   119.70327799   180.09302000
 H     16  14   3     2.069137457087   118.89472496     2.17778557
 H     22  21   3     2.070299097040   119.21317936     0.98349851
 H     27  25  24     2.066383602934   119.91467814   179.79570098
 H     25  24  23     2.068903733305   120.09517562   180.40967323
 H     23  22  21     2.068873799838   119.70556718   179.84866346
 H     24  23  22     2.068374226528   120.11262626   180.69693824
 H     33  32  31     2.066757289268   120.03259144   179.64976463
 H     29  28   3     2.069653679723   119.09237138   356.82601807
 H     30  29  28     2.069072747808   119.69127582   179.48519839
 H     31  30  29     2.068410840289   120.06855311   180.31589689
 H     32  31  30     2.069020410649   120.10966409   179.81397968
 H      1   2   8     3.324737087210    92.52789278   206.84120734
 H     70   1   2     1.710260433708    72.26289240    93.31241454
 H      1   2   8     2.955025313001    90.48224292   309.83630704
 H      1   2   8     3.092232793736    86.43934276    34.66979334

---------------------
BASIS SET INFORMATION
---------------------
There are 4 groups of distinct atoms

 Group   1 Type Ru  : 7s6p5d1f contracted to 5s3p2d1f pattern {31111/411/41/1}
 Group   2 Type P   : 10s7p1d contracted to 4s3p1d pattern {5311/511/1}
 Group   3 Type C   : 7s4p1d contracted to 3s2p1d pattern {511/31/1}
 Group   4 Type H   : 4s1p contracted to 2s1p pattern {31/1}

Atom   0Ru   basis set group =>   1
Atom   1P    basis set group =>   2
Atom   2P    basis set group =>   2
Atom   3C    basis set group =>   3
Atom   4C    basis set group =>   3
Atom   5C    basis set group =>   3
Atom   6C    basis set group =>   3
Atom   7C    basis set group =>   3
Atom   8C    basis set group =>   3
Atom   9C    basis set group =>   3
Atom  10C    basis set group =>   3
Atom  11C    basis set group =>   3
Atom  12C    basis set group =>   3
Atom  13C    basis set group =>   3
Atom  14C    basis set group =>   3
Atom  15C    basis set group =>   3
Atom  16C    basis set group =>   3
Atom  17C    basis set group =>   3
Atom  18C    basis set group =>   3
Atom  19C    basis set group =>   3
Atom  20C    basis set group =>   3
Atom  21C    basis set group =>   3
Atom  22C    basis set group =>   3
Atom  23C    basis set group =>   3
Atom  24C    basis set group =>   3
Atom  25C    basis set group =>   3
Atom  26C    basis set group =>   3
Atom  27C    basis set group =>   3
Atom  28C    basis set group =>   3
Atom  29C    basis set group =>   3
Atom  30C    basis set group =>   3
Atom  31C    basis set group =>   3
Atom  32C    basis set group =>   3
Atom  33C    basis set group =>   3
Atom  34C    basis set group =>   3
Atom  35C    basis set group =>   3
Atom  36C    basis set group =>   3
Atom  37C    basis set group =>   3
Atom  38C    basis set group =>   3
Atom  39H    basis set group =>   4
Atom  40H    basis set group =>   4
Atom  41H    basis set group =>   4
Atom  42H    basis set group =>   4
Atom  43H    basis set group =>   4
Atom  44H    basis set group =>   4
Atom  45H    basis set group =>   4
Atom  46H    basis set group =>   4
Atom  47H    basis set group =>   4
Atom  48H    basis set group =>   4
Atom  49H    basis set group =>   4
Atom  50H    basis set group =>   4
Atom  51H    basis set group =>   4
Atom  52H    basis set group =>   4
Atom  53H    basis set group =>   4
Atom  54H    basis set group =>   4
Atom  55H    basis set group =>   4
Atom  56H    basis set group =>   4
Atom  57H    basis set group =>   4
Atom  58H    basis set group =>   4
Atom  59H    basis set group =>   4
Atom  60H    basis set group =>   4
Atom  61H    basis set group =>   4
Atom  62H    basis set group =>   4
Atom  63H    basis set group =>   4
Atom  64H    basis set group =>   4
Atom  65H    basis set group =>   4
Atom  66H    basis set group =>   4
Atom  67H    basis set group =>   4
Atom  68H    basis set group =>   4
Atom  69H    basis set group =>   4
Atom  70H    basis set group =>   4
Atom  71H    basis set group =>   4
Atom  72H    basis set group =>   4
---------------------------------
AUXILIARY/J BASIS SET INFORMATION
---------------------------------
There are 4 groups of distinct atoms

 Group   1 Type Ru  : 11s5p5d3f3g contracted to 8s5p5d2f3g pattern {41111111/11111/11111/21/111}
 Group   2 Type P   : 14s5p5d2f1g contracted to 8s4p3d1f1g pattern {71111111/2111/311/2/1}
 Group   3 Type C   : 12s5p4d2f1g contracted to 6s4p3d1f1g pattern {711111/2111/211/2/1}
 Group   4 Type H   : 5s2p1d contracted to 3s1p1d pattern {311/2/1}

Atom   0Ru   basis set group =>   1
Atom   1P    basis set group =>   2
Atom   2P    basis set group =>   2
Atom   3C    basis set group =>   3
Atom   4C    basis set group =>   3
Atom   5C    basis set group =>   3
Atom   6C    basis set group =>   3
Atom   7C    basis set group =>   3
Atom   8C    basis set group =>   3
Atom   9C    basis set group =>   3
Atom  10C    basis set group =>   3
Atom  11C    basis set group =>   3
Atom  12C    basis set group =>   3
Atom  13C    basis set group =>   3
Atom  14C    basis set group =>   3
Atom  15C    basis set group =>   3
Atom  16C    basis set group =>   3
Atom  17C    basis set group =>   3
Atom  18C    basis set group =>   3
Atom  19C    basis set group =>   3
Atom  20C    basis set group =>   3
Atom  21C    basis set group =>   3
Atom  22C    basis set group =>   3
Atom  23C    basis set group =>   3
Atom  24C    basis set group =>   3
Atom  25C    basis set group =>   3
Atom  26C    basis set group =>   3
Atom  27C    basis set group =>   3
Atom  28C    basis set group =>   3
Atom  29C    basis set group =>   3
Atom  30C    basis set group =>   3
Atom  31C    basis set group =>   3
Atom  32C    basis set group =>   3
Atom  33C    basis set group =>   3
Atom  34C    basis set group =>   3
Atom  35C    basis set group =>   3
Atom  36C    basis set group =>   3
Atom  37C    basis set group =>   3
Atom  38C    basis set group =>   3
Atom  39H    basis set group =>   4
Atom  40H    basis set group =>   4
Atom  41H    basis set group =>   4
Atom  42H    basis set group =>   4
Atom  43H    basis set group =>   4
Atom  44H    basis set group =>   4
Atom  45H    basis set group =>   4
Atom  46H    basis set group =>   4
Atom  47H    basis set group =>   4
Atom  48H    basis set group =>   4
Atom  49H    basis set group =>   4
Atom  50H    basis set group =>   4
Atom  51H    basis set group =>   4
Atom  52H    basis set group =>   4
Atom  53H    basis set group =>   4
Atom  54H    basis set group =>   4
Atom  55H    basis set group =>   4
Atom  56H    basis set group =>   4
Atom  57H    basis set group =>   4
Atom  58H    basis set group =>   4
Atom  59H    basis set group =>   4
Atom  60H    basis set group =>   4
Atom  61H    basis set group =>   4
Atom  62H    basis set group =>   4
Atom  63H    basis set group =>   4
Atom  64H    basis set group =>   4
Atom  65H    basis set group =>   4
Atom  66H    basis set group =>   4
Atom  67H    basis set group =>   4
Atom  68H    basis set group =>   4
Atom  69H    basis set group =>   4
Atom  70H    basis set group =>   4
Atom  71H    basis set group =>   4
Atom  72H    basis set group =>   4
-------------------------
ECP PARAMETER INFORMATION
-------------------------

 Group 1, Type Ru ECP Def2-ECP (replacing 28 core electrons, lmax=3)

Atom   0Ru   ECP group =>   1

------------------------------------------------------------------------------
                             ORCA STARTUP CALCULATIONS
                           -- RI-GTO INTEGRALS CHOSEN --
------------------------------------------------------------------------------
------------------------------------------------------------------------------
                   ___                                                        
                  /   \      - P O W E R E D   B Y -                         
                 /     \                                                     
                 |  |  |   _    _      __       _____    __    __             
                 |  |  |  | |  | |    /  \     |  _  \  |  |  /  |          
                  \  \/   | |  | |   /    \    | | | |  |  | /  /          
                 / \  \   | |__| |  /  /\  \   | |_| |  |  |/  /          
                |  |  |   |  __  | /  /__\  \  |    /   |      \           
                |  |  |   | |  | | |   __   |  |    \   |  |\   \          
                \     /   | |  | | |  |  |  |  | |\  \  |  | \   \       
                 \___/    |_|  |_| |__|  |__|  |_| \__\ |__|  \__/        
                                                                              
                      - O R C A' S   B I G   F R I E N D -                    
                                      &                                       
                       - I N T E G R A L  F E E D E R -                       
                                                                              
 v1 FN, 2020, v2 2021, v3 2022-2024                                           
------------------------------------------------------------------------------


----------------------
SHARK INTEGRAL PACKAGE
----------------------

Number of atoms                             ...     73
Number of basis functions                   ...    741
Number of shells                            ...    345
Maximum angular momentum                    ...      3
Integral batch strategy                     ... SHARK/LIBINT Hybrid
RI-J (if used) integral strategy            ... SPLIT-RIJ (Revised 2003 algorithm where possible)
Printlevel                                  ...      1
Contraction scheme used                     ... SEGMENTED contraction
Prescreening option                         ... SCHWARTZ
   Thresh                                   ... 1.000e-12
   Tcut                                     ... 1.000e-14
   Tpresel                                  ... 1.000e-14 
Coulomb Range Separation                    ... NOT USED
Exchange Range Separation                   ... NOT USED
Multipole approximations                    ... NOT USED
Finite Nucleus Model                        ... NOT USED
CABS basis                                  ... NOT available
Auxiliary Coulomb fitting basis             ... AVAILABLE
   # of basis functions in Aux-J            ...   2329
   # of shells in Aux-J                     ...    767
   Maximum angular momentum in Aux-J        ...      4
Auxiliary J/K fitting basis                 ... NOT available
Auxiliary Correlation fitting basis         ... NOT available
Auxiliary 'external' fitting basis          ... NOT available

Checking pre-screening integrals            ... done (  0.0 sec) Dimension = 345
   => SHARK Basis and OBASIS are compatible. Storing Pre-screening
Shell pair information
Shell pair cut-off parameter TPreSel        ...   1.0e-14
Total number of shell pairs                 ...     59685
Shell pairs after pre-screening             ...     37971
Total number of primitive shell pairs       ...    216784
Primitive shell pairs kept                  ...     82702
          la=0 lb=0:  11931 shell pairs
          la=1 lb=0:  14249 shell pairs
          la=1 lb=1:   4356 shell pairs
          la=2 lb=0:   4284 shell pairs
          la=2 lb=1:   2546 shell pairs
          la=2 lb=2:    358 shell pairs
          la=3 lb=0:    140 shell pairs
          la=3 lb=1:     82 shell pairs
          la=3 lb=2:     24 shell pairs
          la=3 lb=3:      1 shell pairs

Checking whether 4 symmetric matrices of dimension 741 fit in memory
:Max Core in MB      =   4096.00
 MB in use           =     49.13
 MB left             =   4046.87
 MB needed           =      8.39
 Data fit in memory  = YES
Calculating RI/J V-Matrix + Cholesky decomp.... done (  0.8 sec)
Calculating Nuclear repulsion               ... done (  0.0 sec) ENN=   4774.741462817796 Eh

Diagonalization of the overlap matrix:
Smallest eigenvalue                        ... 2.849e-04
Time for diagonalization                   ...    0.306 sec
Threshold for overlap eigenvalues          ... 1.000e-07
Number of eigenvalues below threshold      ... 0
Time for construction of square roots      ...    0.187 sec
Total time needed                          ...    0.495 sec

-------------------
DFT GRID GENERATION
-------------------

General Integration Accuracy     IntAcc      ... 4.959
Radial Grid Type                 RadialGrid  ... OptM3 with GC (2021)
Angular Grid (max. ang.)         AngularGrid ... 6 (Lebedev-590)
Angular grid pruning method      GridPruning ... 4 (adaptive)
Weight generation scheme         WeightScheme... mBecke (2022)
Basis function cutoff            BFCut       ... 1.0000e-12
Integration weight cutoff        WCut        ... 1.0000e-14
Partially contracted basis set               ... off
Rotationally invariant grid construction     ... off
Angular grids for H and He will be reduced by one unit

Total number of grid points                  ...   843969
Total number of batches                      ...    13224
Average number of points per batch           ...       63
Average number of grid points per atom       ...    11561
Grids setup in  27.0 sec
Initializing property integral containers    ... done (  0.0 sec)

SHARK setup successfully completed in  31.6 seconds

Maximum memory used throughout the entire STARTUP-calculation: 312.4 MB
-------------------------------------------------------------------------------
                                 ORCA GUESS
                   Start orbitals & Density for SCF / CASSCF
-------------------------------------------------------------------------------

------------
SCF SETTINGS
------------
Hamiltonian:
 Density Functional     Method          .... DFT(GTOs)
 Exchange Functional    Exchange        .... B88
   X-Alpha parameter    XAlpha          ....  0.666667
   Becke's b parameter  XBeta           ....  0.004200
 Correlation Functional Correlation     .... P86
 LDA part of GGA corr.  LDAOpt          .... PW91-LDA
 Gradients option       PostSCFGGA      .... off
   NL short-range parameter             ....  4.400000
 RI-approximation to the Coulomb term is turned on
   Number of AuxJ basis functions       .... 2329


General Settings:
 Integral files         IntName         .... 15h_def2svp
 Hartree-Fock type      HFTyp           .... RHF
 Total Charge           Charge          ....    0
 Multiplicity           Mult            ....    1
 Number of Electrons    NEL             ....  296
 Basis Dimension        Dim             ....  741
 Nuclear Repulsion      ENuc            ....   4774.7414628178 Eh

Convergence Acceleration:
 AO-DIIS                CNVDIIS         .... on
   Start iteration      DIISMaxIt       ....    12
   Startup error        DIISStart       ....  0.200000
   # of expansion vecs  DIISMaxEq       ....     5
   Bias factor          DIISBfac        ....   1.050
   Max. coefficient     DIISMaxC        ....  10.000
 MO-DIIS                CNVKDIIS        .... off
 Trust-Rad. Augm. Hess. CNVTRAH         .... auto
   Auto Start mean grad. ratio tolernc. ....  1.125000
   Auto Start start iteration           ....    50
   Auto Start num. interpolation iter.  ....    10
   Max. Number of Micro iterations      ....    24
   Max. Number of Macro iterations      .... Maxiter - #DIIS iter
   Number of Davidson start vectors     ....     2
   Converg. threshold    (grad. norm)   ....   2.000e-06
   Grad. Scal. Fac. for Micro threshold ....   0.100
   Minimum threshold for Micro iter.    ....   1.000e-02
   NR start threshold (gradient norm)   ....   1.000e-04
   Initial trust radius                 ....   0.400
   Minimum AH scaling param. (alpha)    ....   1.000
   Maximum AH scaling param. (alpha)    .... 1000.000
   Quad. conv. algorithm                .... NR
   White noise on init. David. guess    .... on
   Maximum white noise                  ....   0.010
   Pseudo random numbers                .... off
   Inactive MOs                         .... canonical
   Orbital update algorithm             .... Taylor
   Preconditioner                       .... Diag
   Full preconditioner red. dimension   ....   250
 SOSCF                 CNVSOSCF           .... on
   Start iteration     SOSCFMaxIt         ....   150
   Startup grad/error  SOSCFStart         ....  0.003300
   Hessian update      SOSCFHessUp        .... L-BFGS
   Autom. constraints  SOSCFAutoConstrain .... off
 Level Shifting         CNVShift        .... on
   Level shift para.    LevelShift      ....    0.2500
   Turn off err/grad.   ShiftErr        ....    0.0010
 Zerner damping         CNVZerner       .... off
 Static damping         CNVDamp         .... on
   Fraction old density DampFac         ....    0.7000
   Max. Damping (<1)    DampMax         ....    0.9800
   Min. Damping (>=0)   DampMin         ....    0.0000
   Turn off err/grad.   DampErr         ....    0.1000

SCF Procedure:
 Maximum # iterations   MaxIter         ....   125
 SCF integral mode      SCFMode         .... Direct
   Integral package                     .... SHARK and LIBINT hybrid scheme
 Reset frequency        DirectResetFreq ....    20
 Integral Threshold     Thresh          ....  1.000e-12 Eh
 Primitive CutOff       TCut            ....  1.000e-14 Eh

Convergence Tolerance:
 Convergence Check Mode ConvCheckMode   .... Total+1el-Energy
 Convergence forced     ConvForced      .... 0
 Energy Change          TolE            ....  1.000e-09 Eh
 1-El. energy change                    ....  1.000e-06 Eh
 Orbital Gradient       TolG            ....  2.000e-06
 Orbital Rotation angle TolX            ....  2.000e-06
 DIIS Error             TolErr          ....  1.000e-08

------------------------------
INITIAL GUESS: MODEL POTENTIAL
------------------------------
Loading Hartree-Fock densities                     ... done
Atomic calculation to generate a density for atom 0 (Ru with ECP)
  Multiplicity assumed   :    5
  Atomic configuration   : 1s2 2s2 2p6 3s2 3p6 4s2 3d10 4p6 5s2 4d6 
  Number of open shells  : 1
  Command: /home/ylvao/work/software/orca_6_1_1_linux_x86-64_shared_openmpi418/orca 15h_def2svp_atom44.inp "" > 15h_def2svp_atom44.out
Returned from the atomic calculation with res=0
Calculating cut-offs                               ... done
Initializing the effective Hamiltonian             ... done
Setting up the integral package (SHARK)            ... done
Starting the Coulomb interaction                   ... done (   5.7 sec)
Making the grid                                    ... done (   2.4 sec)
Mapping shells                                     ... done
Starting the XC term evaluation                    ... done (   2.5 sec)
  promolecular density results
     # of electrons  =    323.969885303
     EX              =   -369.637446269
     EC              =    -12.967991666
     EX+EC           =   -382.605437935
Transforming the Hamiltonian                       ... done (   0.1 sec)
Diagonalizing the Hamiltonian                      ... done (   0.1 sec)
Back transforming the eigenvectors                 ... done (   0.0 sec)
Now organizing SCF variables                       ... done
                      ------------------
                      INITIAL GUESS DONE (  12.4 sec)
                      ------------------
             **** ENERGY FILE WAS UPDATED (15h_def2svp.en.tmp) ****
Finished Guess after  12.7 sec
Maximum memory used throughout the entire GUESS-calculation: 86.9 MB

-------------------------------------------------------------------------------------------
                                      ORCA LEAN-SCF
                              memory conserving SCF solver
-------------------------------------------------------------------------------------------

----------------------------------------D-I-I-S--------------------------------------------
Iteration    Energy (Eh)           Delta-E    RMSDP     MaxDP     DIISErr   Damp  Time(sec)
-------------------------------------------------------------------------------------------
               ***  Starting incremental Fock matrix formation  ***
    1    -2168.3099223866865941     0.00e+00  1.34e-03  7.32e-02  4.72e-01  0.700  42.7
Warning: op=0 Small HOMO/LUMO gap (   0.084) - skipping pre-diagonalization
         Will do a full diagonalization
    2    -2168.5950042385611596    -2.85e-01  9.54e-04  3.73e-02  3.22e-01  0.700  44.5
    3    -2168.7050104895088225    -1.10e-01  4.75e-04  2.12e-02  2.22e-01  0.700  44.6
                               ***Turning on AO-DIIS***
    4    -2168.7650014531718625    -6.00e-02  2.31e-04  1.67e-02  1.55e-01  0.700  36.5
    5    -2168.8089537215601013    -4.40e-02  1.28e-04  9.91e-03  1.08e-01  0.700  41.9
    6    -2168.8397266660558671    -3.08e-02  8.02e-05  8.80e-03  7.63e-02  0.700  36.5
    7    -2168.8611722261921386    -2.14e-02  1.75e-04  1.93e-02  5.32e-02  0.000  32.6
                              *** Initializing SOSCF ***
---------------------------------------S-O-S-C-F--------------------------------------
Iteration    Energy (Eh)           Delta-E    RMSDP     MaxDP     MaxGrad    Time(sec)
--------------------------------------------------------------------------------------
    8    -2168.9110057776761096    -4.98e-02  2.67e-05  1.67e-03  7.57e-04    42.7
               *** Restarting incremental Fock matrix formation ***
    9    -2168.9110118845410398    -6.11e-06  4.81e-05  6.13e-03  5.60e-04    43.1
   10    -2168.9108791651742649     1.33e-04  3.93e-05  5.88e-03  2.43e-03    35.5
   11    -2168.9110181961132184    -1.39e-04  2.74e-05  2.13e-03  1.77e-04    31.5
   12    -2168.9109949106414206     2.33e-05  1.99e-05  1.19e-03  4.03e-04    32.4
   13    -2168.9110223838733873    -2.75e-05  1.24e-05  5.47e-04  7.64e-05    29.1
   14    -2168.9110181651340099     4.22e-06  8.58e-06  4.80e-04  1.44e-04    34.2
   15    -2168.9110236014776092    -5.44e-06  2.65e-06  1.11e-04  2.18e-05    27.7
   16    -2168.9110233625779074     2.39e-07  1.86e-06  8.13e-05  4.89e-05    22.4
   17    -2168.9110236501119289    -2.88e-07  8.55e-07  6.39e-05  4.83e-06    20.3
   18    -2168.9110236329461259     1.72e-08  5.57e-07  3.45e-05  1.13e-05    20.8
   19    -2168.9110236553779032    -2.24e-08  3.26e-07  3.15e-05  2.36e-06    19.5
   20    -2168.9110236513861310     3.99e-09  2.31e-07  1.87e-05  6.53e-06    22.8
   21    -2168.9110236557526150    -4.37e-09  1.12e-07  1.14e-05  6.39e-07    25.9
   22    -2168.9110236574415467    -1.69e-09  7.05e-08  6.28e-06  1.34e-06    25.6
   23    -2168.9110236559099576     1.53e-09  4.66e-08  3.84e-06  3.02e-07    20.6
                  *** Gradient check signals convergence ***

               *****************************************************
               *                     SUCCESS                       *
               *           SCF CONVERGED AFTER  23 CYCLES          *
               *****************************************************

             **** ENERGY FILE WAS UPDATED (15h_def2svp.en.tmp) ****

----------------
TOTAL SCF ENERGY
----------------

Total Energy       :      -2168.91102365566439 Eh          -59019.06943 eV

Components:
Nuclear Repulsion  :       4774.74146281779576 Eh          129927.32058 eV
Electronic Energy  :      -6943.65248647346016 Eh         -188946.39001 eV
One Electron Energy:     -12498.52271714705967 Eh         -340102.09359 eV
Two Electron Energy:       5554.87023067359951 Eh          151155.70358 eV

Virial components:
Potential Energy   :      -4257.00851452944880 Eh         -115839.09083 eV
Kinetic Energy     :       2088.09749087378486 Eh           56820.02140 eV
Virial Ratio       :          2.03870199218910

DFT components:
N(Alpha)           :      147.999975985595 electrons
N(Beta)            :      147.999975985595 electrons
N(Total)           :      295.999951971190 electrons
E(X)               :     -253.201227781649 Eh       
E(C)               :      -11.080393529642 Eh       
E(XC)              :     -264.281621311291 Eh       

---------------
SCF CONVERGENCE
---------------

  Last Energy change         ...   -1.5316e-09  Tolerance :   1.0000e-09
  Last MAX-Density change    ...    3.8388e-06  Tolerance :   1.0000e-08
  Last RMS-Density change    ...    4.6628e-08  Tolerance :   1.0000e-09
  Last DIIS Error            ...    7.5678e-04  Tolerance :   1.0000e-08
  Last Orbital Gradient      ...    3.0204e-07  Tolerance :   2.0000e-06
  Last Orbital Rotation      ...    1.0424e-06  Tolerance :   2.0000e-06


----------------
ORBITAL ENERGIES
----------------

  NO   OCC          E(Eh)            E(eV) 
   0   2.0000     -76.373587     -2078.2310 
   1   2.0000     -76.372999     -2078.2150 
   2   2.0000      -9.927028      -270.1282 
   3   2.0000      -9.926028      -270.1010 
   4   2.0000      -9.925578      -270.0887 
   5   2.0000      -9.925430      -270.0847 
   6   2.0000      -9.924018      -270.0463 
   7   2.0000      -9.922668      -270.0095 
   8   2.0000      -9.922450      -270.0036 
   9   2.0000      -9.922351      -270.0009 
  10   2.0000      -9.922294      -269.9993 
  11   2.0000      -9.922282      -269.9990 
  12   2.0000      -9.921936      -269.9896 
  13   2.0000      -9.921904      -269.9887 
  14   2.0000      -9.921836      -269.9869 
  15   2.0000      -9.921795      -269.9858 
  16   2.0000      -9.921768      -269.9850 
  17   2.0000      -9.921703      -269.9833 
  18   2.0000      -9.921538      -269.9788 
  19   2.0000      -9.921511      -269.9781 
  20   2.0000      -9.921461      -269.9767 
  21   2.0000      -9.921400      -269.9750 
  22   2.0000      -9.921309      -269.9725 
  23   2.0000      -9.921272      -269.9715 
  24   2.0000      -9.921187      -269.9692 
  25   2.0000      -9.921179      -269.9690 
  26   2.0000      -9.921149      -269.9682 
  27   2.0000      -9.921088      -269.9665 
  28   2.0000      -9.920895      -269.9613 
  29   2.0000      -9.920823      -269.9593 
  30   2.0000      -9.920768      -269.9578 
  31   2.0000      -9.920576      -269.9526 
  32   2.0000      -9.920548      -269.9518 
  33   2.0000      -9.920029      -269.9377 
  34   2.0000      -9.919952      -269.9356 
  35   2.0000      -9.919324      -269.9185 
  36   2.0000      -9.918048      -269.8838 
  37   2.0000      -9.916259      -269.8351 
  38   2.0000      -6.336018      -172.4118 
  39   2.0000      -6.335536      -172.3987 
  40   2.0000      -4.557721      -124.0219 
  41   2.0000      -4.557588      -124.0183 
  42   2.0000      -4.557256      -124.0092 
  43   2.0000      -4.557064      -124.0040 
  44   2.0000      -4.554881      -123.9446 
  45   2.0000      -4.554413      -123.9319 
  46   2.0000      -2.828618       -76.9706 
  47   2.0000      -1.710050       -46.5328 
  48   2.0000      -1.708931       -46.5024 
  49   2.0000      -1.705865       -46.4190 
  50   2.0000      -0.777221       -21.1493 
  51   2.0000      -0.776549       -21.1310 
  52   2.0000      -0.769242       -20.9321 
  53   2.0000      -0.768843       -20.9213 
  54   2.0000      -0.768820       -20.9207 
  55   2.0000      -0.767761       -20.8918 
  56   2.0000      -0.697505       -18.9801 
  57   2.0000      -0.696598       -18.9554 
  58   2.0000      -0.671877       -18.2827 
  59   2.0000      -0.671449       -18.2711 
  60   2.0000      -0.669869       -18.2281 
  61   2.0000      -0.669713       -18.2238 
  62   2.0000      -0.669071       -18.2064 
  63   2.0000      -0.667292       -18.1580 
  64   2.0000      -0.665513       -18.1095 
  65   2.0000      -0.665222       -18.1016 
  66   2.0000      -0.664447       -18.0805 
  67   2.0000      -0.663701       -18.0602 
  68   2.0000      -0.589986       -16.0543 
  69   2.0000      -0.587443       -15.9851 
  70   2.0000      -0.546162       -14.8618 
  71   2.0000      -0.545645       -14.8478 
  72   2.0000      -0.543318       -14.7844 
  73   2.0000      -0.542041       -14.7497 
  74   2.0000      -0.541592       -14.7375 
  75   2.0000      -0.538941       -14.6653 
  76   2.0000      -0.533073       -14.5057 
  77   2.0000      -0.532921       -14.5015 
  78   2.0000      -0.531845       -14.4722 
  79   2.0000      -0.530529       -14.4364 
  80   2.0000      -0.504188       -13.7196 
  81   2.0000      -0.501732       -13.6528 
  82   2.0000      -0.465843       -12.6762 
  83   2.0000      -0.464990       -12.6530 
  84   2.0000      -0.464556       -12.6412 
  85   2.0000      -0.463224       -12.6050 
  86   2.0000      -0.447400       -12.1744 
  87   2.0000      -0.444770       -12.1028 
  88   2.0000      -0.418650       -11.3921 
  89   2.0000      -0.409493       -11.1429 
  90   2.0000      -0.409089       -11.1319 
  91   2.0000      -0.406839       -11.0707 
  92   2.0000      -0.406689       -11.0666 
  93   2.0000      -0.404559       -11.0086 
  94   2.0000      -0.404184       -10.9984 
  95   2.0000      -0.400012       -10.8849 
  96   2.0000      -0.399154       -10.8615 
  97   2.0000      -0.398918       -10.8551 
  98   2.0000      -0.397883       -10.8269 
  99   2.0000      -0.393258       -10.7011 
 100   2.0000      -0.392599       -10.6832 
 101   2.0000      -0.376729       -10.2513 
 102   2.0000      -0.376208       -10.2371 
 103   2.0000      -0.375792       -10.2258 
 104   2.0000      -0.375253       -10.2111 
 105   2.0000      -0.375043       -10.2054 
 106   2.0000      -0.372687       -10.1413 
 107   2.0000      -0.367814       -10.0087 
 108   2.0000      -0.366731        -9.9793 
 109   2.0000      -0.363393        -9.8884 
 110   2.0000      -0.361494        -9.8368 
 111   2.0000      -0.343670        -9.3517 
 112   2.0000      -0.336112        -9.1461 
 113   2.0000      -0.332852        -9.0574 
 114   2.0000      -0.331133        -9.0106 
 115   2.0000      -0.328713        -8.9447 
 116   2.0000      -0.326878        -8.8948 
 117   2.0000      -0.326192        -8.8761 
 118   2.0000      -0.324329        -8.8254 
 119   2.0000      -0.307874        -8.3777 
 120   2.0000      -0.305933        -8.3249 
 121   2.0000      -0.305211        -8.3052 
 122   2.0000      -0.304836        -8.2950 
 123   2.0000      -0.304204        -8.2778 
 124   2.0000      -0.302175        -8.2226 
 125   2.0000      -0.297610        -8.0984 
 126   2.0000      -0.292489        -7.9590 
 127   2.0000      -0.291754        -7.9390 
 128   2.0000      -0.289174        -7.8688 
 129   2.0000      -0.288016        -7.8373 
 130   2.0000      -0.268436        -7.3045 
 131   2.0000      -0.258645        -7.0381 
 132   2.0000      -0.241060        -6.5596 
 133   2.0000      -0.239415        -6.5148 
 134   2.0000      -0.237983        -6.4758 
 135   2.0000      -0.235969        -6.4210 
 136   2.0000      -0.235065        -6.3965 
 137   2.0000      -0.232653        -6.3308 
 138   2.0000      -0.231739        -6.3059 
 139   2.0000      -0.230029        -6.2594 
 140   2.0000      -0.229061        -6.2331 
 141   2.0000      -0.227663        -6.1950 
 142   2.0000      -0.225208        -6.1282 
 143   2.0000      -0.220896        -6.0109 
 144   2.0000      -0.207963        -5.6590 
 145   2.0000      -0.180231        -4.9043 
 146   2.0000      -0.173768        -4.7285 
 147   2.0000      -0.169914        -4.6236 
 148   0.0000      -0.080222        -2.1830 
 149   0.0000      -0.063012        -1.7146 
 150   0.0000      -0.059705        -1.6247 
 151   0.0000      -0.056422        -1.5353 
 152   0.0000      -0.053424        -1.4537 
 153   0.0000      -0.052186        -1.4200 
 154   0.0000      -0.049476        -1.3463 
 155   0.0000      -0.046946        -1.2775 
 156   0.0000      -0.044857        -1.2206 
 157   0.0000      -0.039198        -1.0666 
 158   0.0000      -0.038505        -1.0478 
*Only the first 10 virtual orbitals were printed.

                    ********************************
                    * MULLIKEN POPULATION ANALYSIS *
                    ********************************

-----------------------
MULLIKEN ATOMIC CHARGES
-----------------------
   0 Ru:   -0.478750
   1 P :    0.415083
   2 P :    0.408054
   3 C :   -0.098069
   4 C :    0.007773
   5 C :    0.003903
   6 C :   -0.009612
   7 C :   -0.091407
   8 C :    0.013223
   9 C :    0.003091
  10 C :    0.006419
  11 C :    0.006770
  12 C :   -0.002870
  13 C :   -0.109331
  14 C :    0.007240
  15 C :    0.026140
  16 C :    0.002719
  17 C :    0.007752
  18 C :    0.005794
  19 C :   -0.006133
  20 C :   -0.104971
  21 C :   -0.004837
  22 C :    0.007319
  23 C :    0.007947
  24 C :    0.008810
  25 C :    0.008056
  26 C :    0.001765
  27 C :   -0.116801
  28 C :    0.010660
  29 C :    0.000765
  30 C :    0.008553
  31 C :    0.006836
  32 C :   -0.003494
  33 C :    0.008187
  34 C :    0.005914
  35 C :   -0.016199
  36 C :   -0.105939
  37 C :    0.000833
  38 C :    0.004542
  39 H :    0.030181
  40 H :   -0.000322
  41 H :    0.002010
  42 H :   -0.000299
  43 H :   -0.002705
  44 H :    0.014167
  45 H :    0.000378
  46 H :    0.001580
  47 H :    0.000263
  48 H :    0.018282
  49 H :    0.017375
  50 H :    0.025525
  51 H :    0.001562
  52 H :    0.001800
  53 H :   -0.000717
  54 H :    0.013985
  55 H :    0.000463
  56 H :    0.002135
  57 H :    0.000023
  58 H :    0.017137
  59 H :    0.006300
  60 H :    0.013655
  61 H :   -0.000018
  62 H :    0.000381
  63 H :    0.002291
  64 H :    0.014045
  65 H :    0.023640
  66 H :    0.001007
  67 H :    0.001424
  68 H :   -0.000384
  69 H :   -0.022515
  70 H :    0.076652
  71 H :   -0.007628
  72 H :   -0.097409
Sum of atomic charges:   -0.0000000

--------------------------------
MULLIKEN REDUCED ORBITAL CHARGES
--------------------------------
  0 Rus       :     2.569880  s :     2.569880
      pz      :     2.124400  p :     6.532846
      px      :     2.183074
      py      :     2.225372
      dz2     :     1.406390  d :     7.370145
      dxz     :     1.789254
      dyz     :     1.205504
      dx2y2   :     1.201366
      dxy     :     1.767632
      f0      :     0.000484  f :     0.005878
      f+1     :     0.000819
      f-1     :     0.001055
      f+2     :     0.001485
      f-2     :     0.000018
      f+3     :     0.001323
      f-3     :     0.000695

  1 P s       :     5.400513  s :     5.400513
      pz      :     2.865861  p :     8.942882
      px      :     3.187567
      py      :     2.889454
      dz2     :     0.043328  d :     0.241522
      dxz     :     0.058141
      dyz     :     0.043206
      dx2y2   :     0.031372
      dxy     :     0.065475

  2 P s       :     5.396446  s :     5.396446
      pz      :     2.877691  p :     8.953098
      px      :     3.188890
      py      :     2.886517
      dz2     :     0.048748  d :     0.242402
      dxz     :     0.057245
      dyz     :     0.035958
      dx2y2   :     0.031382
      dxy     :     0.069069

  3 C s       :     3.082703  s :     3.082703
      pz      :     0.994050  p :     2.982201
      px      :     0.981784
      py      :     1.006366
      dz2     :     0.007940  d :     0.033165
      dxz     :     0.008897
      dyz     :     0.005667
      dx2y2   :     0.005738
      dxy     :     0.004924

  4 C s       :     3.174568  s :     3.174568
      pz      :     0.915306  p :     2.785782
      px      :     0.944738
      py      :     0.925738
      dz2     :     0.004903  d :     0.031877
      dxz     :     0.003905
      dyz     :     0.008879
      dx2y2   :     0.006559
      dxy     :     0.007631

  5 C s       :     3.175284  s :     3.175284
      pz      :     0.971080  p :     2.788839
      px      :     0.973726
      py      :     0.844032
      dz2     :     0.007532  d :     0.031974
      dxz     :     0.005252
      dyz     :     0.006323
      dx2y2   :     0.007575
      dxy     :     0.005294

  6 C s       :     3.234241  s :     3.234241
      pz      :     0.891342  p :     2.743549
      px      :     0.918897
      py      :     0.933310
      dz2     :     0.004879  d :     0.031821
      dxz     :     0.004145
      dyz     :     0.008573
      dx2y2   :     0.006807
      dxy     :     0.007417

  7 C s       :     3.077802  s :     3.077802
      pz      :     1.016724  p :     2.980546
      px      :     0.979005
      py      :     0.984817
      dz2     :     0.003430  d :     0.033059
      dxz     :     0.005394
      dyz     :     0.003739
      dx2y2   :     0.010049
      dxy     :     0.010448

  8 C s       :     3.235827  s :     3.235827
      pz      :     0.941265  p :     2.719294
      px      :     0.862826
      py      :     0.915204
      dz2     :     0.002627  d :     0.031656
      dxz     :     0.002730
      dyz     :     0.006112
      dx2y2   :     0.010919
      dxy     :     0.009268

  9 C s       :     3.182033  s :     3.182033
      pz      :     0.977320  p :     2.783092
      px      :     0.915518
      py      :     0.890254
      dz2     :     0.002397  d :     0.031785
      dxz     :     0.004761
      dyz     :     0.004039
      dx2y2   :     0.009467
      dxy     :     0.011120

 10 C s       :     3.175394  s :     3.175394
      pz      :     0.975655  p :     2.786233
      px      :     0.942669
      py      :     0.867909
      dz2     :     0.003151  d :     0.031954
      dxz     :     0.005369
      dyz     :     0.003186
      dx2y2   :     0.009771
      dxy     :     0.010478

 11 C s       :     3.174289  s :     3.174289
      pz      :     0.980575  p :     2.787110
      px      :     0.847954
      py      :     0.958581
      dz2     :     0.002671  d :     0.031831
      dxz     :     0.002785
      dyz     :     0.006076
      dx2y2   :     0.011296
      dxy     :     0.009002

 12 C s       :     3.233749  s :     3.233749
      pz      :     0.958211  p :     2.737104
      px      :     0.929750
      py      :     0.849144
      dz2     :     0.002454  d :     0.032017
      dxz     :     0.004899
      dyz     :     0.004390
      dx2y2   :     0.009273
      dxy     :     0.011000

 13 C s       :     3.092321  s :     3.092321
      pz      :     1.011334  p :     2.983906
      px      :     0.982255
      py      :     0.990317
      dz2     :     0.006395  d :     0.033104
      dxz     :     0.006006
      dyz     :     0.005399
      dx2y2   :     0.007489
      dxy     :     0.007816

 14 C s       :     3.225105  s :     3.225105
      pz      :     0.913472  p :     2.736022
      px      :     0.901540
      py      :     0.921010
      dz2     :     0.009934  d :     0.031633
      dxz     :     0.008433
      dyz     :     0.007042
      dx2y2   :     0.002342
      dxy     :     0.003882

 15 C s       :     3.218580  s :     3.218580
      pz      :     0.943816  p :     2.723593
      px      :     0.878128
      py      :     0.901649
      dz2     :     0.004968  d :     0.031687
      dxz     :     0.005010
      dyz     :     0.006805
      dx2y2   :     0.007734
      dxy     :     0.007170

 16 C s       :     3.180396  s :     3.180396
      pz      :     0.919659  p :     2.785046
      px      :     0.941435
      py      :     0.923953
      dz2     :     0.004079  d :     0.031839
      dxz     :     0.005337
      dyz     :     0.006557
      dx2y2   :     0.007719
      dxy     :     0.008146

 17 C s       :     3.175422  s :     3.175422
      pz      :     0.966331  p :     2.784894
      px      :     0.943478
      py      :     0.875085
      dz2     :     0.006359  d :     0.031932
      dxz     :     0.006092
      dyz     :     0.005079
      dx2y2   :     0.006949
      dxy     :     0.007453

 18 C s       :     3.175683  s :     3.175683
      pz      :     0.944883  p :     2.786681
      px      :     0.884136
      py      :     0.957663
      dz2     :     0.005019  d :     0.031841
      dxz     :     0.005138
      dyz     :     0.006937
      dx2y2   :     0.007703
      dxy     :     0.007045

 19 C s       :     3.236818  s :     3.236818
      pz      :     0.919812  p :     2.737386
      px      :     0.938434
      py      :     0.879140
      dz2     :     0.004087  d :     0.031929
      dxz     :     0.005388
      dyz     :     0.006667
      dx2y2   :     0.007738
      dxy     :     0.008048

 20 C s       :     3.089086  s :     3.089086
      pz      :     0.999556  p :     2.982756
      px      :     0.985248
      py      :     0.997953
      dz2     :     0.003836  d :     0.033130
      dxz     :     0.004898
      dyz     :     0.006291
      dx2y2   :     0.008857
      dxy     :     0.009248

 21 C s       :     3.231693  s :     3.231693
      pz      :     0.926939  p :     2.741390
      px      :     0.876153
      py      :     0.938298
      dz2     :     0.003716  d :     0.031753
      dxz     :     0.003866
      dyz     :     0.006797
      dx2y2   :     0.008979
      dxy     :     0.008395

 22 C s       :     3.176296  s :     3.176296
      pz      :     0.978179  p :     2.784458
      px      :     0.952391
      py      :     0.853888
      dz2     :     0.005143  d :     0.031928
      dxz     :     0.005451
      dyz     :     0.004287
      dx2y2   :     0.009021
      dxy     :     0.008026

 23 C s       :     3.175112  s :     3.175112
      pz      :     0.940588  p :     2.785028
      px      :     0.927762
      py      :     0.916678
      dz2     :     0.003242  d :     0.031912
      dxz     :     0.004582
      dyz     :     0.006430
      dx2y2   :     0.008161
      dxy     :     0.009497

 24 C s       :     3.174282  s :     3.174282
      pz      :     0.959686  p :     2.785024
      px      :     0.882975
      py      :     0.942363
      dz2     :     0.003712  d :     0.031884
      dxz     :     0.003934
      dyz     :     0.006848
      dx2y2   :     0.008958
      dxy     :     0.008431

 25 C s       :     3.177882  s :     3.177882
      pz      :     0.887753  p :     2.782176
      px      :     0.927464
      py      :     0.966959
      dz2     :     0.007615  d :     0.031887
      dxz     :     0.009320
      dyz     :     0.006056
      dx2y2   :     0.004646
      dxy     :     0.004250

 26 C s       :     3.230329  s :     3.230329
      pz      :     0.954299  p :     2.736123
      px      :     0.951099
      py      :     0.830726
      dz2     :     0.005221  d :     0.031783
      dxz     :     0.005496
      dyz     :     0.004275
      dx2y2   :     0.008837
      dxy     :     0.007952

 27 C s       :     3.092154  s :     3.092154
      pz      :     0.999217  p :     2.991483
      px      :     0.984643
      py      :     1.007622
      dz2     :     0.008141  d :     0.033163
      dxz     :     0.006630
      dyz     :     0.007350
      dx2y2   :     0.005985
      dxy     :     0.005057

 28 C s       :     3.227335  s :     3.227335
      pz      :     0.898817  p :     2.730349
      px      :     0.926540
      py      :     0.904993
      dz2     :     0.009614  d :     0.031656
      dxz     :     0.007204
      dyz     :     0.008500
      dx2y2   :     0.002414
      dxy     :     0.003924

 29 C s       :     3.178503  s :     3.178503
      pz      :     0.899053  p :     2.788815
      px      :     0.962872
      py      :     0.926890
      dz2     :     0.007530  d :     0.031917
      dxz     :     0.006625
      dyz     :     0.009444
      dx2y2   :     0.004294
      dxy     :     0.004025

 30 C s       :     3.174532  s :     3.174532
      pz      :     0.856904  p :     2.785046
      px      :     0.965981
      py      :     0.962161
      dz2     :     0.008567  d :     0.031870
      dxz     :     0.005307
      dyz     :     0.007370
      dx2y2   :     0.005624
      dxy     :     0.005002

 31 C s       :     3.175074  s :     3.175074
      pz      :     0.954855  p :     2.786168
      px      :     0.935643
      py      :     0.895670
      dz2     :     0.009734  d :     0.031923
      dxz     :     0.007086
      dyz     :     0.008552
      dx2y2   :     0.002431
      dxy     :     0.004119

 32 C s       :     3.233371  s :     3.233371
      pz      :     0.831811  p :     2.738370
      px      :     0.959990
      py      :     0.946568
      dz2     :     0.007511  d :     0.031753
      dxz     :     0.006639
      dyz     :     0.009387
      dx2y2   :     0.004167
      dxy     :     0.004050

 33 C s       :     3.174615  s :     3.174615
      pz      :     0.865793  p :     2.785320
      px      :     0.955879
      py      :     0.963649
      dz2     :     0.008156  d :     0.031877
      dxz     :     0.008044
      dyz     :     0.005585
      dx2y2   :     0.005296
      dxy     :     0.004796

 34 C s       :     3.176308  s :     3.176308
      pz      :     0.956836  p :     2.785855
      px      :     0.887974
      py      :     0.941045
      dz2     :     0.010107  d :     0.031924
      dxz     :     0.008276
      dyz     :     0.007098
      dx2y2   :     0.002376
      dxy     :     0.004067

[...]
      pz      :     0.026865  p :     0.066919
      px      :     0.017337
      py      :     0.022716

 58 H s       :     0.885846  s :     0.885846
      pz      :     0.018603  p :     0.070726
      px      :     0.037112
      py      :     0.015011

 59 H s       :     0.893664  s :     0.893664
      pz      :     0.019160  p :     0.070130
      px      :     0.037287
      py      :     0.013682

 60 H s       :     0.894427  s :     0.894427
      pz      :     0.013920  p :     0.071357
      px      :     0.014812
      py      :     0.042625

 61 H s       :     0.900659  s :     0.900659
      pz      :     0.019182  p :     0.066947
      px      :     0.033637
      py      :     0.014128

 62 H s       :     0.900640  s :     0.900640
      pz      :     0.013448  p :     0.066910
      px      :     0.014886
      py      :     0.038575

 63 H s       :     0.901217  s :     0.901217
      pz      :     0.021715  p :     0.066967
      px      :     0.020955
      py      :     0.024297

 64 H s       :     0.894961  s :     0.894961
      pz      :     0.030568  p :     0.071046
      px      :     0.017121
      py      :     0.023357

 65 H s       :     0.887805  s :     0.887805
      pz      :     0.013241  p :     0.069729
      px      :     0.025086
      py      :     0.031401

 66 H s       :     0.900657  s :     0.900657
      pz      :     0.027132  p :     0.066887
      px      :     0.016785
      py      :     0.022970

 67 H s       :     0.901628  s :     0.901628
      pz      :     0.038697  p :     0.066994
      px      :     0.014947
      py      :     0.013350

 68 H s       :     0.900905  s :     0.900905
      pz      :     0.012655  p :     0.066925
      px      :     0.023770
      py      :     0.030500

 69 H s       :     0.858879  s :     0.858879
      pz      :     0.033753  p :     0.064511
      px      :     0.010229
      py      :     0.020528

 70 H s       :     0.810912  s :     0.810912
      pz      :     0.027362  p :     0.074365
      px      :     0.011014
      py      :     0.035989

 71 H s       :     0.893810  s :     0.893810
      pz      :     0.022704  p :     0.058796
      px      :     0.017815
      py      :     0.018277

 72 H s       :     0.997869  s :     0.997869
      pz      :     0.011170  p :     0.039381
      px      :     0.012734
      py      :     0.015478



                      *****************************
                      * MAYER POPULATION ANALYSIS *
                      *****************************

  NA   - Mulliken gross atomic population
  ZA   - Total nuclear charge
  QA   - Mulliken gross atomic charge
  VA   - Mayer's total valence
  BVA  - Mayer's bonded valence
  FA   - Mayer's free valence

  ATOM       NA         ZA         QA         VA         BVA        FA
  0 Ru    16.4787    16.0000    -0.4787     4.8351     4.8351    -0.0000
  1 P     14.5849    15.0000     0.4151     3.9373     3.9373    -0.0000
  2 P     14.5919    15.0000     0.4081     3.9404     3.9404     0.0000
  3 C      6.0981     6.0000    -0.0981     3.8485     3.8485    -0.0000
  4 C      5.9922     6.0000     0.0078     3.8241     3.8241     0.0000
  5 C      5.9961     6.0000     0.0039     3.8552     3.8552     0.0000
  6 C      6.0096     6.0000    -0.0096     3.8880     3.8880    -0.0000
  7 C      6.0914     6.0000    -0.0914     3.8327     3.8327     0.0000
  8 C      5.9868     6.0000     0.0132     3.8797     3.8797    -0.0000
  9 C      5.9969     6.0000     0.0031     3.8301     3.8301     0.0000
 10 C      5.9936     6.0000     0.0064     3.8196     3.8196     0.0000
 11 C      5.9932     6.0000     0.0068     3.8508     3.8508    -0.0000
 12 C      6.0029     6.0000    -0.0029     3.8631     3.8631    -0.0000
 13 C      6.1093     6.0000    -0.1093     3.8436     3.8436    -0.0000
 14 C      5.9928     6.0000     0.0072     3.8623     3.8623     0.0000
 15 C      5.9739     6.0000     0.0261     3.8769     3.8769    -0.0000
 16 C      5.9973     6.0000     0.0027     3.8403     3.8403    -0.0000
 17 C      5.9922     6.0000     0.0078     3.8196     3.8196    -0.0000
 18 C      5.9942     6.0000     0.0058     3.8394     3.8394    -0.0000
 19 C      6.0061     6.0000    -0.0061     3.8692     3.8692    -0.0000
 20 C      6.1050     6.0000    -0.1050     3.8279     3.8279     0.0000
 21 C      6.0048     6.0000    -0.0048     3.8801     3.8801    -0.0000
 22 C      5.9927     6.0000     0.0073     3.8462     3.8462     0.0000
 23 C      5.9921     6.0000     0.0079     3.8215     3.8215    -0.0000
 24 C      5.9912     6.0000     0.0088     3.8352     3.8352    -0.0000
 25 C      5.9919     6.0000     0.0081     3.8456     3.8456     0.0000
 26 C      5.9982     6.0000     0.0018     3.8954     3.8954    -0.0000
 27 C      6.1168     6.0000    -0.1168     3.8413     3.8413     0.0000
 28 C      5.9893     6.0000     0.0107     3.8659     3.8659     0.0000
 29 C      5.9992     6.0000     0.0008     3.8484     3.8484    -0.0000
 30 C      5.9914     6.0000     0.0086     3.8203     3.8203    -0.0000
 31 C      5.9932     6.0000     0.0068     3.8347     3.8347     0.0000
 32 C      6.0035     6.0000    -0.0035     3.8917     3.8917    -0.0000
 33 C      5.9918     6.0000     0.0082     3.8219     3.8219     0.0000
 34 C      5.9941     6.0000     0.0059     3.8408     3.8408     0.0000
 35 C      6.0162     6.0000    -0.0162     3.9020     3.9020    -0.0000
 36 C      6.1059     6.0000    -0.1059     3.8288     3.8288     0.0000
 37 C      5.9992     6.0000     0.0008     3.8975     3.8975    -0.0000
 38 C      5.9955     6.0000     0.0045     3.8381     3.8381    -0.0000
 39 H      0.9698     1.0000     0.0302     1.0030     1.0030     0.0000
 40 H      1.0003     1.0000    -0.0003     0.9789     0.9789     0.0000
 41 H      0.9980     1.0000     0.0020     0.9785     0.9785     0.0000
 42 H      1.0003     1.0000    -0.0003     0.9787     0.9787     0.0000
 43 H      1.0027     1.0000    -0.0027     1.0009     1.0009    -0.0000
 44 H      0.9858     1.0000     0.0142     0.9949     0.9949    -0.0000
 45 H      0.9996     1.0000     0.0004     0.9788     0.9788    -0.0000
 46 H      0.9984     1.0000     0.0016     0.9788     0.9788    -0.0000
 47 H      0.9997     1.0000     0.0003     0.9790     0.9790    -0.0000
 48 H      0.9817     1.0000     0.0183     0.9934     0.9934    -0.0000
 49 H      0.9826     1.0000     0.0174     0.9937     0.9937    -0.0000
 50 H      0.9745     1.0000     0.0255     1.0040     1.0040     0.0000
 51 H      0.9984     1.0000     0.0016     0.9795     0.9795     0.0000
 52 H      0.9982     1.0000     0.0018     0.9788     0.9788     0.0000
 53 H      1.0007     1.0000    -0.0007     0.9791     0.9791     0.0000
 54 H      0.9860     1.0000     0.0140     0.9919     0.9919    -0.0000
 55 H      0.9995     1.0000     0.0005     0.9789     0.9789     0.0000
 56 H      0.9979     1.0000     0.0021     0.9787     0.9787     0.0000
 57 H      1.0000     1.0000     0.0000     0.9788     0.9788    -0.0000
 58 H      0.9829     1.0000     0.0171     1.0018     1.0018    -0.0000
 59 H      0.9937     1.0000     0.0063     1.0050     1.0050     0.0000
 60 H      0.9863     1.0000     0.0137     0.9957     0.9957    -0.0000
 61 H      1.0000     1.0000    -0.0000     0.9789     0.9789    -0.0000
 62 H      0.9996     1.0000     0.0004     0.9787     0.9787     0.0000
 63 H      0.9977     1.0000     0.0023     0.9788     0.9788    -0.0000
 64 H      0.9860     1.0000     0.0140     0.9950     0.9950    -0.0000
 65 H      0.9764     1.0000     0.0236     0.9993     0.9993     0.0000
 66 H      0.9990     1.0000     0.0010     0.9789     0.9789     0.0000
 67 H      0.9986     1.0000     0.0014     0.9788     0.9788     0.0000
 68 H      1.0004     1.0000    -0.0004     0.9789     0.9789     0.0000
 69 H      1.0225     1.0000    -0.0225     1.0116     1.0116    -0.0000
 70 H      0.9233     1.0000     0.0767     0.9959     0.9959    -0.0000
 71 H      1.0076     1.0000    -0.0076     1.0197     1.0197     0.0000
 72 H      1.0974     1.0000    -0.0974     0.9990     0.9990    -0.0000

  Mayer bond orders larger than 0.100000
B(  0-Ru,  1-P ) :   0.8603 B(  0-Ru,  2-P ) :   0.8515 B(  0-Ru, 69-H ) :   0.4434 
B(  0-Ru, 70-H ) :   0.4432 B(  0-Ru, 71-H ) :   0.9189 B(  0-Ru, 72-H ) :   0.7845 
B(  1-P ,  3-C ) :   0.9249 B(  1-P ,  7-C ) :   0.9352 B(  1-P , 36-C ) :   0.9117 
B(  2-P , 13-C ) :   0.9378 B(  2-P , 20-C ) :   0.9146 B(  2-P , 27-C ) :   0.9214 
B(  3-C , 14-C ) :   1.3599 B(  3-C , 35-C ) :   1.3932 B(  4-C ,  5-C ) :   1.3639 
B(  4-C , 38-C ) :   1.3878 B(  4-C , 46-H ) :   0.9773 B(  5-C ,  6-C ) :   1.4075 
B(  5-C , 45-H ) :   0.9771 B(  6-C , 36-C ) :   1.3460 B(  6-C , 44-H ) :   0.9685 
B(  7-C ,  8-C ) :   1.4036 B(  7-C , 12-C ) :   1.3379 B(  8-C ,  9-C ) :   1.3713 
B(  8-C , 39-H ) :   0.9598 B(  9-C , 10-C ) :   1.3805 B(  9-C , 40-H ) :   0.9784 
B( 10-C , 11-C ) :   1.3670 B( 10-C , 41-H ) :   0.9769 B( 11-C , 12-C ) :   1.4024 
B( 11-C , 42-H ) :   0.9769 B( 12-C , 43-H ) :   0.9710 B( 13-C , 15-C ) :   1.3855 
B( 13-C , 19-C ) :   1.3591 B( 14-C , 25-C ) :   1.3966 B( 14-C , 50-H ) :   0.9548 
B( 15-C , 16-C ) :   1.3883 B( 15-C , 58-H ) :   0.9602 B( 16-C , 17-C ) :   1.3727 
B( 16-C , 57-H ) :   0.9777 B( 17-C , 18-C ) :   1.3754 B( 17-C , 56-H ) :   0.9771 
B( 18-C , 19-C ) :   1.3837 B( 18-C , 55-H ) :   0.9771 B( 19-C , 54-H ) :   0.9698 
B( 20-C , 21-C ) :   1.3558 B( 20-C , 26-C ) :   1.3933 B( 21-C , 22-C ) :   1.3960 
B( 21-C , 59-H ) :   0.9644 B( 22-C , 23-C ) :   1.3696 B( 22-C , 62-H ) :   0.9777 
B( 23-C , 24-C ) :   1.3808 B( 23-C , 63-H ) :   0.9769 B( 24-C , 26-C ) :   1.3808 
B( 24-C , 61-H ) :   0.9746 B( 25-C , 33-C ) :   1.3706 B( 25-C , 51-H ) :   0.9773 
B( 26-C , 60-H ) :   0.9628 B( 27-C , 28-C ) :   1.3478 B( 27-C , 32-C ) :   1.3934 
B( 28-C , 29-C ) :   1.4017 B( 28-C , 65-H ) :   0.9674 B( 29-C , 30-C ) :   1.3652 
B( 29-C , 66-H ) :   0.9777 B( 30-C , 31-C ) :   1.3831 B( 30-C , 67-H ) :   0.9770 
B( 31-C , 32-C ) :   1.3758 B( 31-C , 68-H ) :   0.9746 B( 32-C , 64-H ) :   0.9633 
B( 33-C , 34-C ) :   1.3795 B( 33-C , 52-H ) :   0.9771 B( 34-C , 35-C ) :   1.3822 
B( 34-C , 53-H ) :   0.9747 B( 35-C , 49-H ) :   0.9589 B( 36-C , 37-C ) :   1.4031 
B( 37-C , 38-C ) :   1.3727 B( 37-C , 48-H ) :   0.9630 B( 38-C , 47-H ) :   0.9744 
B( 69-H , 70-H ) :   0.5139 

-------
TIMINGS
-------

Total SCF time: 0 days 0 hours 12 min 36 sec 

Total time                  ....     756.729 sec
Sum of individual times     ....     734.406 sec  ( 97.1%)

SCF preparation             ....       0.293 sec  (  0.0%)
Fock matrix formation       ....     721.937 sec  ( 95.4%)
  Startup                   ....       0.079 sec  (  0.0% of F)
  Split-RI-J                ....     316.032 sec  ( 43.8% of F)
  XC integration            ....     427.561 sec  ( 59.2% of F)
    XC Preparation          ....       0.000 sec  (  0.0% of XC)
    Basis function eval.    ....     156.549 sec  ( 36.6% of XC)
    Density eval.           ....     146.418 sec  ( 34.2% of XC)
    XC-Functional eval.     ....      13.014 sec  (  3.0% of XC)
    XC-Potential eval.      ....     104.402 sec  ( 24.4% of XC)
Diagonalization             ....       0.000 sec  (  0.0%)
Density matrix formation    ....       0.698 sec  (  0.1%)
Total Energy calculation    ....       0.136 sec  (  0.0%)
Population analysis         ....       0.211 sec  (  0.0%)
Orbital Transformation      ....       0.706 sec  (  0.1%)
Orbital Orthonormalization  ....       0.000 sec  (  0.0%)
DIIS solution               ....       5.094 sec  (  0.7%)
SOSCF solution              ....       5.329 sec  (  0.7%)
Finished LeanSCF after 756.8 sec

Maximum memory used throughout the entire LEANSCF-calculation: 185.0 MB

-------------------------   --------------------
FINAL SINGLE POINT ENERGY     -2168.911023655664
-------------------------   --------------------


------------------------------------------------------------------------------
                              ORCA PROPERTY CALCULATIONS
------------------------------------------------------------------------------

GBWName                                 ... 15h_def2svp.gbw
Number of atoms                         ...     73
Number of basis functions               ...    741
Max core memory                         ...   4096 MB

Electric properties:
Dipole moment                           ... YES
Quadrupole moment                       ...  NO
Static polarizability (Dipole/Dipole)   ...  NO
Static polarizability (Dipole/Quad.)    ...  NO
Static polarizability (Quad./Quad.)     ...  NO
Static polarizability (Velocity)        ...  NO
Static hyperpolarizability              ...  NO

Atomic electric properties:
Dipole moment                           ...  NO
Quadrupole moment                       ...  NO
Static polarizability                   ...  NO

Choice of electric origin               ... Center of mass
Position of electric origin             ...    -0.000272    -0.006907    -0.010907

General magnetic properties:
Magnetizability                         ...  NO

EPR properties:
g-Tensor (aka g-matrix)                 ...  NO
Zero-Field splitting spin-orbit         ...  NO
Zero-field splitting spin-spin          ...  NO
Hyperfine couplings                     ...  NO (   0 nuclei)
Quadrupole couplings                    ...  NO (   0 nuclei)
Contact density                         ...  NO (   0 nuclei)

NMR properties:
Chemical shifts                         ...  NO (   0 nuclei)
Spin-rotation constants                 ...  NO (   0 nuclei)
Spin-spin couplings                     ...  NO (   0 nuclei,    0 pairs)

Choice of magnetic origin               ... GIAO
Position of magnetic origin             ...     0.000000     0.000000     0.000000

Properties with geometric perturbations:
SCF Hessian                             ...  NO
IR spectrum                             ...  NO
VCD spectrum                            ...  NO
X-ray spectroscopy properties:
SCF XES/XAS/RIXS spectra                ...  NO

SCF SOC stabilization energy            ...  NO
Diagonal Born-Oppenheimer correction    ...  NO

-------------
DIPOLE MOMENT
-------------

Method             : SCF
Type of density    : Electron Density
Multiplicity       :   1
Irrep              :   0
Energy             : -2168.9110236556643940 Eh
Basis              : AO
                                X                 Y                 Z
Electronic contribution:     -0.253162575     -10.970177709     -17.346833759
Nuclear contribution   :      0.284792239      10.716196757      17.613675095
                        -----------------------------------------
Total Dipole Moment    :      0.031629664      -0.253980952       0.266841337
                        -----------------------------------------
Magnitude (a.u.)       :      0.369744586
Magnitude (Debye)      :      0.939816048



--------------------
Rotational spectrum 
--------------------
 
Rotational constants in cm-1:             0.003492             0.001797             0.001775 
Rotational constants in MHz :           104.698094            53.862021            53.214998 

Dipole components along the rotational axes: 
x,y,z [a.u.] :     0.031564    -0.252976    -0.267802 
x,y,z [Debye]:     0.080229    -0.643014    -0.680699 

 

Dipole moment calculation done in   0.0 sec 

Maximum memory used throughout the entire PROP-calculation: 89.3 MB

--------------------------------
SUGGESTED CITATIONS FOR THIS RUN
--------------------------------

Below you find a list of papers that are relevant to this ORCA run
We neither can nor want to force you to cite these papers, but we appreciate if you do
You receive ORCA, which is the product of decades of hard work by many enthusiastic individuals, for free
The only thing we kindly ask in return is that you cite our papers,
We deeply appreciate it, if you show your appreciation for ORCA by not just citing the generic ORCA reference.

Please note that relegating all ORCA citations to the supporting information does *not* help us.
SI sections are not indexed - citations you put there will not count into any citation statistics
But we need these citations in order to attract the funding resources that allow us to do what we are doing

Therefore, if you are a happy ORCA user, please consider citing a few of the papers listed below in the main body of your paper

In addition to the list printed below, the program has created the file 15h_def2svp.bibtex that contains the list in bibtex format
You can import this file easily into all common literature databanks and citation aid programs

It goes without saying that in many instances, there are alternative algorithms to achieve similar
results as the ones you have gotten from ORCA. It is, of course, also the case that in some instances
ORCA just re-implements algorithms worked out by others. We are fully aware of that and we are also
fully appreciative of our colleagues work. Hence this citation list should not be read as indicating
that the listed papers, which are focused on our own work, are the only ones worth citing. It simply
meant to make it easier for users to cite ORCA specific papers. It is not a substitute for doing your
own literature research and citing the relevant literature in a scientifically appropriate manner.

List of essential papers. We consider these as the minimum necessary citations

  1. Neese, F.
     Software update: the ORCA program system, version 6.0
     WIRES Comput. Molec. Sci. 2025 15(1), e70019
     doi.org/10.1002/wcms.70019

List of papers to cite with high priority. The work reported in these papers was absolutely
necessary for this run to complete.
Our perspective: the developers of density functionals and basis sets usually get cited in chemistry papers
Good! But without the algorithms to do something with them, the functionals or basis sets would not do anything.
Hence, in our opinion, the algorithm design and method developments papers are equally worthy of getting cited

  1. Neese, F.
     An improvement of the resolution of the identity approximation for the formation of the Coulomb matrix
     J. Comp. Chem. 2003 24(14), 1740-1747
     doi.org/10.1002/jcc.10318
  2. Neese, F.
     The SHARK Integral Generation and Digestion System
     J. Comp. Chem. 2022 44(3), 381
     doi.org/10.1002/jcc.26942

List of suggested additional citations. These are papers that are important in the 'surrounding' of 
of this run, or papers that preceded the highly important papers. If you like your results we are grateful for a citation.

  1. Neese, F.
     The ORCA program system
     WIRES Comput. Molec. Sci. 2012 2(1), 73-78
     doi.org/10.1002/wcms.81
  2. Neese, F.
     Software update: the ORCA program system, version 4.0
     WIRES Comput. Molec. Sci. 2018 8(1), 1-6
     doi.org/10.1002/wcms.1327
  3. Neese, F.; Wennmohs, F.; Becker, U.; Riplinger, C.
     The ORCA quantum chemistry program package
     J. Chem. Phys. 2020 152(22), 224108
     doi.org/10.1063/5.0004608
  4. Neese, F.
     Software update: The ORCA program system—Version 5.0
     WIRES Comput. Molec. Sci. 2022 12(1), e1606
     doi.org/10.1002/wcms.1606

List of optional additional citations

  1. Neese, F.
     Approximate second-order SCF convergence for spin unrestricted wavefunctions
     Chem. Phys. Lett. 2000 325(1-3), 93-98
     doi.org/10.1016/s0009-2614(00)00662-x

Timings for individual modules:

Sum of individual times          ...      801.507 sec (=  13.358 min)
Startup calculation              ...       31.630 sec (=   0.527 min)   3.9 %
SCF iterations                   ...      769.529 sec (=  12.825 min)  96.0 %
Property calculations            ...        0.349 sec (=   0.006 min)   0.0 %
                             ****ORCA TERMINATED NORMALLY****
TOTAL RUN TIME: 0 days 0 hours 13 minutes 21 seconds 756 msec
