
                                 *****************
                                 * O   R   C   A *
                                 *****************

                                            #,                                       
                                            ###                                      
                                            ####                                     
                                            #####                                    
                                            ######                                   
                                           ########,                                 
                                     ,,################,,,,,                         
                               ,,#################################,,                 
                          ,,##########################################,,             
                       ,#########################################, ''#####,          
                    ,#############################################,,   '####,        
                  ,##################################################,,,,####,       
                ,###########''''           ''''###############################       
              ,#####''   ,,,,##########,,,,          '''####'''          '####       
            ,##' ,,,,###########################,,,                        '##       
           ' ,,###''''                  '''############,,,                           
         ,,##''                                '''############,,,,        ,,,,,,###''
      ,#''                                            '''#######################'''  
     '                                                          ''''####''''         
             ,#######,   #######,   ,#######,      ##                                
            ,#'     '#,  ##    ##  ,#'     '#,    #''#        ,####,    ,#,          
            ##       ##  ##   ,#'  ##            #'  '#       #'       ,# #          
            ##       ##  #######   ##           ,######,      #####,      #          
            '#,     ,#'  ##    ##  '#,     ,#' ,#      #,     #,   #      #          
             '#######'   ##     ##  '#######'  #'      '#     '####' #    #          



                #########################################################
                #                        -***-                          #
                #          Department of theory and spectroscopy        #
                #                                                       #
                #                      Frank Neese                      #
                #                                                       #
                #     Directorship, Architecture, Infrastructure        #
                #                    SHARK, DRIVERS                     #
                #        Core code/Algorithms in most modules           #
                #                                                       #
                #        Max Planck Institute fuer Kohlenforschung      #
                #                Kaiser Wilhelm Platz 1                 #
                #                 D-45470 Muelheim/Ruhr                 #
                #                      Germany                          #
                #                                                       #
                #                  All rights reserved                  #
                #                        -***-                          #
                #########################################################


                         Program Version 6.1.1  -  RELEASE   -
                                (GIT: $487d211c$)
                          ($2025-11-21 10:33:24 +0100$)


 With contributions from (in alphabetic order):
[Max-Planck-Institut fuer Kohlenforschung]                               
  Daniel Aravena         : Magnetic Suceptibility                        
  Michael Atanasov       : Ab Initio Ligand Field Theory (pilot matlab implementation)
  Alexander A. Auer      : GIAO ZORA, VPT2 properties, NMR spectrum      
  Ute Becker             : All parallelization in ORCA, NUMFREQ, NUMCALC 
  Giovanni Bistoni       : ED, misc. LED, open-shell LED, HFLD           
  Dmytro Bykov           : pre 5.0 version of the SCF Hessian            
  Marcos Casanova-Páez   : Triplet and SCS-CIS(D). UHF-(DLPNO)-IP/EA/STEOM-CCSD. UHF-CVS-IP/STEOM-CCSD   
  Vijay G. Chilkuri      : MRCI spin determinant printing, contributions to CSF-ICE 
  Pauline Colinet        : FMM embedding                                 
  Dipayan Datta          : RHF DLPNO-CCSD density                        
  Achintya Kumar Dutta   : EOM-CC, STEOM-CC                              
  Nicolas Foglia         : Exact transition moments, OPA infrastructure, MCD improvements    
  Dmitry Ganyushin       : Spin-Orbit,Spin-Spin,Magnetic field MRCI      
  Miquel Garcia-Rates    : C-PCM and meta-GGA Hessian, CCSD/C-PCM, Gaussian charge scheme 
  Tiago L. C. Gouveia    : GS-ROHF, GS-ROCIS                             
  Yang Guo               : DLPNO-NEVPT2, F12-NEVPT2, CIM, IAO-localization        
  Andreas Hansen         : Spin unrestricted coupled pair/coupled cluster methods 
  Ingolf Harden          : AUTO-CI MPn and infrastructure                
  Benjamin Helmich-Paris : MC-RPA, TRAH-(SCF,CASSCF), AVAS, COSX integrals, SCF dyn. polar., MC-PDFT, srDFT 
  Lee Huntington         : MR-EOM, pCC                                   
  Robert Izsak           : Overlap fitted RIJCOSX, COSX-SCS-MP3, EOM     
  Riya Kayal             : Wick's Theorem for AUTO-CI, AUTO-CI UHF-CCSDT 
  Emily Kempfer          : AUTO-CI RHF CISDT and CCSDT, approximate NEVPT4
  Christian Kollmar      : KDIIS, OOCD, Brueckner-CCSD(T), CCSD density, CASPT2, CASPT2-K, improved NEVPT2 
  Axel Koslowski         : Symmetry handling                             
  Simone Kossmann        : meta-GGA functionals, TD-DFT gradient, OOMP2, (MP2 Hessian; deprecated post 5.0) 
  Lucas Lang             : DCDCAS, Hyperfine gauge corrections, ICE-SOC+SSC
  Marvin Lechner         : AUTO-CI (C++ implementation), FIC-MRCC        
  Spencer Leger          : CASSCF response                               
  Dagmar Lenk            : GEPOL surface, SMD, ORCA-2-JSON               
  Dimitrios Liakos       : Extrapolation schemes; Compound Job, Property file
  Dimitrios Manganas     : Further ROCIS development; embedding schemes. LFT, Crystal Embedding 
  Dimitrios Pantazis     : SARC Basis sets                               
  Anastasios Papadopoulos: AUTO-CI, single reference methods and gradients 
  Taras Petrenko         : pre 6.0 DFT Hessian and TD-DFT gradient,  ECA, NRVS 
  Petra Pikulova         : Analytic Raman intensities                    
  Peter Pinski           : DLPNO-MP2, DLPNO-MP2 Gradient                 
  Shashank Vittal Rao    : ES-AILFT, MagRelax                            
  Christoph Reimann      : Effective Core Potentials                     
  Marius Retegan         : Local ZFS, SOC                                
  Christoph Riplinger    : Optimizer, TS searches, QM/MM, DLPNO-CCSD(T), (RO)-DLPNO pert. Triples 
  Michael Roemelt        : Original ROCIS implementation, recursive CI coupling coefficients
  Masaaki Saitow         : Open-shell DLPNO-CCSD energy and density      
  Barbara Sandhoefer     : DKH picture change effects                    
  Yorick L. A. Schmerwitz: GMF and freeze-and-release deltaSCF, NEB S-IDPP initial path                    
  Kantharuban Sivalingam : CASSCF convergence/infrastructure, NEVPT2, NEVPT3, NEVPT4(SD), FIC-MRCI and CEPA variants
  Bernardo de Souza      : ESD, SOC TD-DFT                               
  Georgi L. Stoychev     : AutoAux, RI-MP2 NMR, DLPNO-MP2 response, X2C  
  Van Anh Tran           : RI-MP2 g-tensors                              
  Willem Van den Heuvel  : Paramagnetic NMR                              
  Zikuan Wang            : NOTCH, Electric field optimization            
  Frank Wennmohs         : Technical directorship and infrastructure     
  Hang Xu                : AUTO-CI-Response properties                   
                                                                         
[FACCTs GmbH]                                                            
  Markus Bursch, Nicolas Foglia, Miquel Garcia-Rates, Ingolf Harden, Hagen Neugebauer, Anastasios Papadopoulos, 
  Christoph Riplinger, Bernardo de Souza, Georgi L. Stoychev                                                    
                                                                 
  APM, various basis sets, CI-OPT, improved COSX, DLPNO-Multilevel,           
  DOCKER, DRACO, updates on ESD, Fragmentator, GOAT, IRC, LR-CPCM, L-BFGS, MBIS, meta-GGA TD-DFT gradient, ML-optimized integration grids, 
  MM, NACMEs, nearIR, NEB, NEB-TS, NL-DFT gradient (VV10), 2- and 3-layer-ONIOM, interface openCOSMO-RS, QMMM,   
  Crystal-QMMM, RESP, rigid body optimization, SF, symmetry and pop. for TD-DFT, various functionals, SOLVATOR                                   
                                                                         
[Other institutions]                                                     
  V. Asgeirsson          : NEB                                           
  Christoph Bannwarth    : sTDA-DFT, sTD-DFT, PBEh-3c, B97-3c, D3        
  Giovanni Bistoni       : ETS/NOCV, ADLD/ADEX, COVALED                  
  Martin Brehm           : Molecular dynamics                            
  Ronald Cardenas        : ETS/NOCV                                      
  Martina Colucci        : COVALED                                       
  Sebastian Ehlert       : rSCAN, r2SCAN, r2SCAN-3c, D4, dhf basis sets  
  Marvin Friede          : D4 for Fr, Ra, Ac-Lr                          
  Lars Goerigk           : TD-DFT with DH, B97 family of functionals     
  Stefan Grimme          : VdW corrections, initial TS optimization, DFT functionals, gCP, sTDA/sTD-DF 
  Waldemar Hujo          : DFT-NL                                        
  H. Jonsson             : NEB                                           
  Holger Kruse           : gCP                                           
  Marcel Mueller         : wB97X-3c, vDZP basis set                      
  Hagen Neugebauer       : wr2SCAN, Native XTB                           
  Gianluca Regni         : ADLD/ADEX                                     
  Tobias Risthaus        : pre 6.0 range-separated hybrid DFT and stability analysis
  Lukas Wittmann         : regularized MP2, r2SCAN double-hybrids, wr2SCAN        
                                                                         
We gratefully acknowledge several colleagues who have allowed us to      
interface, adapt or use parts of their codes:                            
  Ed Valeev, F. Pavosevic, A. Kumar             : LibInt (2-el integral package), F12 methods 
  Garnet Chan, S. Sharma, J. Yang, R. Olivares  : DMRG                   
  Ulf Ekstrom                                   : XCFun DFT Library      
  Mihaly Kallay                                 : mrcc  (arbitrary order and MRCC methods)
  Frank Weinhold                                : gennbo (NPA and NBO analysis)           
  Simon Mueller                                 : openCOSMO-RS                            
  Christopher J. Cramer and Donald G. Truhlar   : smd solvation model                     
  S Lehtola, MJT Oliveira, MAL Marques          : LibXC Library                           
  Liviu Ungur et al                             : ANISO software                          


 Your calculation uses the libint2 library for the computation of 2-el integrals
 For citations please refer to: http://libint.valeyev.net

 Your ORCA version has been built with support for libXC version: 7.0.0
 For citations please refer to: https://libxc.gitlab.io

 This ORCA versions uses:
   CBLAS   interface :  Fast vector & matrix operations
   LAPACKE interface :  Fast linear algebra routines
   SCALAPACK package :  Parallel linear algebra routines
   Shared memory     :  Shared parallel matrices
   BLAS/LAPACK       :  OpenBLAS 0.3.29  USE64BITINT DYNAMIC_ARCH NO_AFFINITY Haswell SINGLE_THREADED
        Core in use  :  Haswell
   Copyright (c) 2011-2014, The OpenBLAS Project


  ***********************************
  * Starting time: Thu Jul  9 11:38:10 2026
  * Host name:     ylva-work-pc
  * Process ID:    116788
  * Working dir.:  /home/ylvao/work/projects/bsse
  ***********************************

Warning: RI is on but no J-basis has been assigned. Assigning Def2/J (nothing to worry about!)
================================================================================

cite the ECPs for Ru [Def2-ECP] as follows:
Ce-Yb(ecp-28): M. Dolg, H. Stoll, H.Preuss, J. Chem. Phys., 1989, 90, 1730-1734.
Y-Cd(ecp-28), Hf-Hg(ecp-46): D. Andrae,U. Haeussermann, M. Dolg, H. Stoll, H. Preuss, Theor. Chim. Acta, 1990, 77, 123-141.
In-Sb(ecp-28), Tl-Bi(ecp-46): B. Metz, H. Stoll, M. Dolg, J. Chem. Phys., 2000, 113, 2563-2569.
Te-Xe(ecp-28), Po-Rn(ecp-46): K. A. Peterson, D. Figgen, E. Goll, H. Stoll, M. Dolg, J. Chem. Phys., 2003, 119, 11113-11123.
Rb(ecp-28), Cs(ecp-46): T. Leininger, A. Nicklass, W. Kuechle, H. Stoll, M. Dolg, A. Bergner, Chem. Phys. Lett., 1996, 255, 274-280.
Sr(ecp-28), Ba(ecp-46): M. Kaupp, P. V. Schleyer, H. Stoll and H. Preuss, J. Chem. Phys., 1991, 94, 1360-1366.
La(ecp-46): M. Dolg, H. Stoll, A. Savin, H. Preuss, Theor. Chim. Acta, 1989, 75, 173-194.
Lu(ecp-28): X. Cao, M. Dolg, J. Chem. Phys., 2001, 115, 7348-7355.

ECP parameters for Ru [Def2-ECP] have been obtained from:
TURBOMOLE (7.0.2)

----- Orbital basis set information -----
Your calculation utilizes the basis: def2-QZVP
   F. Weigend and R. Ahlrichs, Phys. Chem. Chem. Phys. 7, 3297 (2005).

----- AuxJ basis set information -----
Your calculation utilizes the auxiliary basis: def2/J
   H-Rn: F. Weigend, Phys. Chem. Chem. Phys. 8, 1057 (2006).
   Fr-Lr: K. Eichkorn, F. Weigend, O. Treutler, R. Ahlrichs; Theor. Chem. Acc. 97, 119 (1997).

================================================================================
                                        WARNINGS
                       Please study these warnings very carefully!
================================================================================


================================================================================
                                       INPUT FILE
================================================================================
NAME = 1b_def2qzvp.inp
|  1> ! BP86 def2-QZVP VeryTightSCF defgrid3
|  2> 
|  3> *xyz 0 1
|  4> Ru 0.011212 0.474077 0.299876
|  5> P 2.251692 1.026126 0.082748
|  6> P -2.232460 1.062489 0.093402
|  7> P -0.019697 -1.895845 0.022086
|  8> C 3.324518 0.209394 -1.208563
|  9> C 5.023165 0.792715 3.871623
| 10> C 4.018881 -0.165054 3.654564
| 11> C 3.193687 -0.082633 2.521046
| 12> C 2.514778 2.815383 -0.412278
| 13> C 2.013700 3.837884 0.429778
| 14> C 2.182077 5.189035 0.095820
| 15> C 2.840568 5.546076 -1.095534
| 16> C 3.334127 4.542855 -1.941925
| 17> C 3.181421 3.185711 -1.599839
| 18> C -2.509114 2.756472 -0.663780
| 19> C 2.719976 -0.239083 -2.405189
| 20> C -1.497599 3.405070 -1.403664
| 21> C -1.736671 4.658402 -1.996099
| 22> C -2.985166 5.282568 -1.852442
| 23> C -4.000333 4.647015 -1.115491
| 24> C -3.766308 3.394019 -0.529452
| 25> C -3.209403 1.307966 1.672754
| 26> C -2.559308 1.963568 2.746132
| 27> C -3.230275 2.202408 3.954766
| 28> C -4.563536 1.786815 4.116991
| 29> C -5.222310 1.142213 3.058424
| 30> C 3.492717 -0.829685 -3.419444
| 31> C -4.554913 0.908552 1.842571
| 32> C -3.437288 0.097066 -0.960194
| 33> C -3.814707 0.556463 -2.244433
| 34> C -4.658881 -0.214516 -3.061572
| 35> C -5.148796 -1.450020 -2.608977
| 36> C -4.780593 -1.917288 -1.336690
| 37> C -3.927488 -1.157210 -0.520622
| 38> C 1.447383 -2.830485 0.715371
| 39> C 1.400920 -3.405847 2.007015
| 40> C 2.538604 -4.020263 2.558228
| 41> C 4.878988 -0.986327 -3.248682
| 42> C 3.736478 -4.077726 1.827796
| 43> C 3.793348 -3.511115 0.543304
| 44> C 2.662807 -2.887337 -0.008699
| 45> C -0.147778 -2.651716 -1.678827
| 46> C 0.387796 -3.924490 -1.994681
| 47> C 0.235469 -4.464267 -3.282653
| 48> C -0.455271 -3.746430 -4.273385
| 49> C -0.992784 -2.484745 -3.970631
| 50> C -0.838746 -1.939036 -2.685026
| 51> C -1.363238 -2.846716 0.927502
| 52> C 5.489566 -0.547093 -2.061273
| 53> C -1.813864 -4.115289 0.497486
| 54> C -2.794868 -4.812873 1.221137
| 55> C -3.337699 -4.260046 2.393994
| 56> C -2.899666 -3.000035 2.833373
| 57> C -1.925547 -2.296424 2.102572
| 58> C 4.719748 0.049910 -1.048583
| 59> C 3.365628 0.959843 1.581927
| 60> C 4.384631 1.916468 1.807540
| 61> C 5.204679 1.832721 2.945028
| 62> H 1.478434 3.565194 1.344855
| 63> H 1.790200 5.964427 0.761921
| 64> H 2.964533 6.601143 -1.359548
| 65> H 3.847438 4.809768 -2.871561
| 66> H 3.581830 2.412554 -2.260335
| 67> H 2.723935 -2.436865 -1.002748
| 68> H 4.722722 -3.541461 -0.033680
| 69> H 4.620448 -4.560799 2.255756
| 70> H 2.480548 -4.466364 3.556688
| 71> H 0.466509 -3.386438 2.575247
| 72> H -1.408558 -4.548181 -0.421318
| 73> H -3.136061 -5.790767 0.865758
| 74> H -4.102429 -4.804509 2.956999
| 75> H -3.326214 -2.549504 3.735278
| 76> H -1.622129 -1.295345 2.424531
| 77> H 2.414940 -0.834349 2.359121
| 78> H 3.873509 -0.983948 4.366037
| 79> H 5.660525 0.730046 4.759435
| 80> H 5.983946 2.584509 3.107590
| 81> H 4.522816 2.735721 1.096213
| 82> H 5.199438 0.385451 -0.124662
| 83> H 1.636263 -0.137665 -2.520720
| 84> H 3.005290 -1.178948 -4.335008
| 85> H 5.479945 -1.453447 -4.035442
| 86> H 6.568676 -0.668734 -1.920745
| 87> H -4.558472 2.908356 0.047984
| 88> H -4.975867 5.128954 -0.993590
| 89> H -3.167490 6.261935 -2.306659
| 90> H -0.934747 5.147296 -2.558413
| 91> H -0.518333 2.927554 -1.496836
| 92> H -1.520505 2.288124 2.621537
| 93> H -5.076754 0.403883 1.024572
| 94> H -6.262604 0.820090 3.173599
| 95> H -2.710648 2.714716 4.771232
| 96> H -5.085345 1.968254 5.061957
| 97> H -3.630548 -1.543367 0.457193
| 98> H -3.456222 1.526928 -2.597742
| 99> H -4.941209 0.160475 -4.050960
|100> H -5.810526 -2.046971 -3.244432
|101> H -5.146271 -2.883191 -0.975016
|102> H 0.944763 -4.480644 -1.234912
|103> H -1.251091 -0.952394 -2.453526
|104> H -1.538567 -1.919723 -4.732965
|105> H -0.572710 -4.168991 -5.276519
|106> H 0.661357 -5.446668 -3.511798
|107> H 0.101914 -0.079623 1.963299
|108> H 0.041254 0.814939 1.997969
|109> H 0.003903 2.086740 0.388775
|110> H 0.010735 0.723855 -1.311151
|111> **                         ****END OF INPUT****
================================================================================

                       ****************************
                       * Single Point Calculation *
                       ****************************

---------------------------------
CARTESIAN COORDINATES (ANGSTROEM)
---------------------------------
  Ru     0.011212    0.474077    0.299876
  P      2.251692    1.026126    0.082748
  P     -2.232460    1.062489    0.093402
  P     -0.019697   -1.895845    0.022086
  C      3.324518    0.209394   -1.208563
  C      5.023165    0.792715    3.871623
  C      4.018881   -0.165054    3.654564
  C      3.193687   -0.082633    2.521046
  C      2.514778    2.815383   -0.412278
  C      2.013700    3.837884    0.429778
  C      2.182077    5.189035    0.095820
  C      2.840568    5.546076   -1.095534
  C      3.334127    4.542855   -1.941925
  C      3.181421    3.185711   -1.599839
  C     -2.509114    2.756472   -0.663780
  C      2.719976   -0.239083   -2.405189
  C     -1.497599    3.405070   -1.403664
  C     -1.736671    4.658402   -1.996099
  C     -2.985166    5.282568   -1.852442
  C     -4.000333    4.647015   -1.115491
  C     -3.766308    3.394019   -0.529452
  C     -3.209403    1.307966    1.672754
  C     -2.559308    1.963568    2.746132
  C     -3.230275    2.202408    3.954766
  C     -4.563536    1.786815    4.116991
  C     -5.222310    1.142213    3.058424
  C      3.492717   -0.829685   -3.419444
  C     -4.554913    0.908552    1.842571
  C     -3.437288    0.097066   -0.960194
  C     -3.814707    0.556463   -2.244433
  C     -4.658881   -0.214516   -3.061572
  C     -5.148796   -1.450020   -2.608977
  C     -4.780593   -1.917288   -1.336690
  C     -3.927488   -1.157210   -0.520622
  C      1.447383   -2.830485    0.715371
  C      1.400920   -3.405847    2.007015
  C      2.538604   -4.020263    2.558228
  C      4.878988   -0.986327   -3.248682
  C      3.736478   -4.077726    1.827796
  C      3.793348   -3.511115    0.543304
  C      2.662807   -2.887337   -0.008699
  C     -0.147778   -2.651716   -1.678827
  C      0.387796   -3.924490   -1.994681
  C      0.235469   -4.464267   -3.282653
  C     -0.455271   -3.746430   -4.273385
  C     -0.992784   -2.484745   -3.970631
  C     -0.838746   -1.939036   -2.685026
  C     -1.363238   -2.846716    0.927502
  C      5.489566   -0.547093   -2.061273
  C     -1.813864   -4.115289    0.497486
  C     -2.794868   -4.812873    1.221137
  C     -3.337699   -4.260046    2.393994
  C     -2.899666   -3.000035    2.833373
  C     -1.925547   -2.296424    2.102572
  C      4.719748    0.049910   -1.048583
  C      3.365628    0.959843    1.581927
  C      4.384631    1.916468    1.807540
  C      5.204679    1.832721    2.945028
  H      1.478434    3.565194    1.344855
  H      1.790200    5.964427    0.761921
  H      2.964533    6.601143   -1.359548
  H      3.847438    4.809768   -2.871561
  H      3.581830    2.412554   -2.260335
  H      2.723935   -2.436865   -1.002748
  H      4.722722   -3.541461   -0.033680
  H      4.620448   -4.560799    2.255756
  H      2.480548   -4.466364    3.556688
  H      0.466509   -3.386438    2.575247
  H     -1.408558   -4.548181   -0.421318
  H     -3.136061   -5.790767    0.865758
  H     -4.102429   -4.804509    2.956999
  H     -3.326214   -2.549504    3.735278
  H     -1.622129   -1.295345    2.424531
  H      2.414940   -0.834349    2.359121
  H      3.873509   -0.983948    4.366037
  H      5.660525    0.730046    4.759435
  H      5.983946    2.584509    3.107590
  H      4.522816    2.735721    1.096213
  H      5.199438    0.385451   -0.124662
  H      1.636263   -0.137665   -2.520720
  H      3.005290   -1.178948   -4.335008
  H      5.479945   -1.453447   -4.035442
  H      6.568676   -0.668734   -1.920745
  H     -4.558472    2.908356    0.047984
  H     -4.975867    5.128954   -0.993590
  H     -3.167490    6.261935   -2.306659
  H     -0.934747    5.147296   -2.558413
  H     -0.518333    2.927554   -1.496836
  H     -1.520505    2.288124    2.621537
  H     -5.076754    0.403883    1.024572
  H     -6.262604    0.820090    3.173599
  H     -2.710648    2.714716    4.771232
  H     -5.085345    1.968254    5.061957
  H     -3.630548   -1.543367    0.457193
  H     -3.456222    1.526928   -2.597742
  H     -4.941209    0.160475   -4.050960
  H     -5.810526   -2.046971   -3.244432
  H     -5.146271   -2.883191   -0.975016
  H      0.944763   -4.480644   -1.234912
  H     -1.251091   -0.952394   -2.453526
  H     -1.538567   -1.919723   -4.732965
  H     -0.572710   -4.168991   -5.276519
  H      0.661357   -5.446668   -3.511798
  H      0.101914   -0.079623    1.963299
  H      0.041254    0.814939    1.997969
  H      0.003903    2.086740    0.388775
  H      0.010735    0.723855   -1.311151

----------------------------
CARTESIAN COORDINATES (A.U.)
----------------------------
  NO LB      ZA    FRAG     MASS         X           Y           Z
   0 Ru   16.0000*   0   101.070    0.021188    0.895876    0.566684
   1 P    15.0000    0    30.974    4.255081    1.939097    0.156371
   2 P    15.0000    0    30.974   -4.218738    2.007813    0.176504
   3 P    15.0000    0    30.974   -0.037222   -3.582628    0.041736
   4 C     6.0000    0    12.011    6.282429    0.395697   -2.283853
   5 C     6.0000    0    12.011    9.492406    1.498014    7.316307
   6 C     6.0000    0    12.011    7.594584   -0.311907    6.906125
   7 C     6.0000    0    12.011    6.035194   -0.156154    4.764087
   8 C     6.0000    0    12.011    4.752242    5.320303   -0.779093
   9 C     6.0000    0    12.011    3.805342    7.252550    0.812163
  10 C     6.0000    0    12.011    4.123528    9.805855    0.181074
  11 C     6.0000    0    12.011    5.367896   10.480565   -2.070259
  12 C     6.0000    0    12.011    6.300587    8.584752   -3.669706
  13 C     6.0000    0    12.011    6.012014    6.020121   -3.023258
  14 C     6.0000    0    12.011   -4.741538    5.208977   -1.254362
  15 C     6.0000    0    12.011    5.140010   -0.451801   -4.545149
  16 C     6.0000    0    12.011   -2.830052    6.434650   -2.652541
  17 C     6.0000    0    12.011   -3.281833    8.803104   -3.772080
  18 C     6.0000    0    12.011   -5.641146    9.982607   -3.500608
  19 C     6.0000    0    12.011   -7.559534    8.781586   -2.107972
  20 C     6.0000    0    12.011   -7.117291    6.413766   -1.000519
  21 C     6.0000    0    12.011   -6.064893    2.471698    3.161047
  22 C     6.0000    0    12.011   -4.836391    3.710606    5.189437
  23 C     6.0000    0    12.011   -6.104335    4.161948    7.473425
  24 C     6.0000    0    12.011   -8.623833    3.376591    7.779985
  25 C     6.0000    0    12.011   -9.868736    2.158470    5.779584
  26 C     6.0000    0    12.011    6.600279   -1.567877   -6.461813
  27 C     6.0000    0    12.011   -8.607538    1.716914    3.481955
  28 C     6.0000    0    12.011   -6.495533    0.183428   -1.814504
  29 C     6.0000    0    12.011   -7.208752    1.051563   -4.241364
  30 C     6.0000    0    12.011   -8.804009   -0.405376   -5.785533
  31 C     6.0000    0    12.011   -9.729814   -2.740141   -4.930252
  32 C     6.0000    0    12.011   -9.034012   -3.623149   -2.525978
  33 C     6.0000    0    12.011   -7.421877   -2.186810   -0.983833
  34 C     6.0000    0    12.011    2.735157   -5.348841    1.351855
  35 C     6.0000    0    12.011    2.647355   -6.436118    3.792709
  36 C     6.0000    0    12.011    4.797266   -7.597196    4.834350
  37 C     6.0000    0    12.011    9.219951   -1.863888   -6.139119
  38 C     6.0000    0    12.011    7.060920   -7.705785    3.454034
  39 C     6.0000    0    12.011    7.168389   -6.635046    1.026696
  40 C     6.0000    0    12.011    5.031976   -5.456276   -0.016439
  41 C     6.0000    0    12.011   -0.279260   -5.011017   -3.172523
  42 C     6.0000    0    12.011    0.732828   -7.416211   -3.769401
  43 C     6.0000    0    12.011    0.444972   -8.436242   -6.203315
  44 C     6.0000    0    12.011   -0.860338   -7.079727   -8.075527
  45 C     6.0000    0    12.011   -1.876090   -4.695488   -7.503405
  46 C     6.0000    0    12.011   -1.585000   -3.664247   -5.073964
  47 C     6.0000    0    12.011   -2.576146   -5.379514    1.752725
  48 C     6.0000    0    12.011   10.373776   -1.033856   -3.895241
  49 C     6.0000    0    12.011   -3.427706   -7.776769    0.940112
  50 C     6.0000    0    12.011   -5.281535   -9.095012    2.307615
  51 C     6.0000    0    12.011   -6.307337   -8.050320    4.523993
  52 C     6.0000    0    12.011   -5.479575   -5.669245    5.354299
  53 C     6.0000    0    12.011   -3.638756   -4.339612    3.973285
  54 C     6.0000    0    12.011    8.919031    0.094316   -1.981535
  55 C     6.0000    0    12.011    6.360115    1.813840    2.989409
  56 C     6.0000    0    12.011    8.285752    3.621600    3.415756
  57 C     6.0000    0    12.011    9.835418    3.463341    5.565296
  58 H     1.0000    0     1.008    2.793835    6.737240    2.541408
  59 H     1.0000    0     1.008    3.382988   11.271134    1.439822
  60 H     1.0000    0     1.008    5.602155   12.474352   -2.569173
  61 H     1.0000    0     1.008    7.270604    9.089144   -5.426464
  62 H     1.0000    0     1.008    6.768678    4.559066   -4.271414
  63 H     1.0000    0     1.008    5.147491   -4.605007   -1.894919
  64 H     1.0000    0     1.008    8.924651   -6.692391   -0.063646
  65 H     1.0000    0     1.008    8.731381   -8.618661    4.262761
  66 H     1.0000    0     1.008    4.687556   -8.440205    6.721166
  67 H     1.0000    0     1.008    0.881574   -6.399440    4.866512
  68 H     1.0000    0     1.008   -2.661789   -8.594816   -0.796176
  69 H     1.0000    0     1.008   -5.926296  -10.942964    1.636046
  70 H     1.0000    0     1.008   -7.752467   -9.079206    5.587918
  71 H     1.0000    0     1.008   -6.285634   -4.817864    7.058652
  72 H     1.0000    0     1.008   -3.065380   -2.447847    4.581700
  73 H     1.0000    0     1.008    4.563575   -1.576691    4.458093
  74 H     1.0000    0     1.008    7.319871   -1.859392    8.250614
  75 H     1.0000    0     1.008   10.696842    1.379587    8.994029
  76 H     1.0000    0     1.008   11.308019    4.884014    5.872494
  77 H     1.0000    0     1.008    8.546884    5.169763    2.071542
  78 H     1.0000    0     1.008    9.825514    0.728397   -0.235577
  79 H     1.0000    0     1.008    3.092089   -0.260149   -4.763470
  80 H     1.0000    0     1.008    5.679175   -2.227889   -8.191978
  81 H     1.0000    0     1.008   10.355595   -2.746617   -7.625880
  82 H     1.0000    0     1.008   12.412999   -1.263724   -3.629682
  83 H     1.0000    0     1.008   -8.614264    5.495996    0.090677
  84 H     1.0000    0     1.008   -9.403026    9.692318   -1.877613
  85 H     1.0000    0     1.008   -5.985689   11.833342   -4.358954
  86 H     1.0000    0     1.008   -1.766416    9.726980   -4.834700
  87 H     1.0000    0     1.008   -0.979507    5.532275   -2.828610
  88 H     1.0000    0     1.008   -2.873338    4.323928    4.953987
  89 H     1.0000    0     1.008   -9.593675    0.763228    1.936160
  90 H     1.0000    0     1.008  -11.834606    1.549746    5.997233
  91 H     1.0000    0     1.008   -5.122382    5.130070    9.016322
  92 H     1.0000    0     1.008   -9.609909    3.719461    9.565712
  93 H     1.0000    0     1.008   -6.860741   -2.916541    0.863970
  94 H     1.0000    0     1.008   -6.531313    2.885476   -4.909021
  95 H     1.0000    0     1.008   -9.337532    0.303254   -7.655205
  96 H     1.0000    0     1.008  -10.980303   -3.868215   -6.131088
  97 H     1.0000    0     1.008   -9.725043   -5.448441   -1.842513
  98 H     1.0000    0     1.008    1.785343   -8.467190   -2.333645
  99 H     1.0000    0     1.008   -2.364219   -1.799764   -4.636492
 100 H     1.0000    0     1.008   -2.907470   -3.627751   -8.944008
 101 H     1.0000    0     1.008   -1.082265   -7.878251   -9.971176
 102 H     1.0000    0     1.008    1.249784  -10.292711   -6.636336
 103 H     1.0000    0     1.008    0.192590   -0.150466    3.710097
 104 H     1.0000    0     1.008    0.077959    1.540012    3.775614
 105 H     1.0000    0     1.008    0.007376    3.943367    0.734678
 106 H     1.0000    0     1.008    0.020286    1.367888   -2.477716
* core charge reduced due to ECP

--------------------------------
INTERNAL COORDINATES (ANGSTROEM)
--------------------------------
 Ru     0   0   0     0.000000000000     0.00000000     0.00000000
 P      1   0   0     2.317682742997     0.00000000     0.00000000
 P      1   2   0     2.328717294565   149.64315660     0.00000000
 P      1   2   3     2.386347195289   103.77832771   152.06515892
 C      2   1   3     1.866946942155   121.07083856   248.65921242
 C      2   1   3     4.700118833633   118.85989875   122.16868880
 C      6   2   1     1.404643164472    59.18282419    38.10828769
 C      7   6   2     1.404493294822   120.31651863   359.78486888
 C      2   1   3     1.875021492176   112.80932606     5.32153582
 C      9   2   1     1.416208234767   118.83920864    59.25861546
 C     10   9   2     1.401958553130   120.77744586   180.29678579
 C     11  10   9     1.407271482720   120.15723246     0.78726209
 C     12  11  10     1.402294757247   119.61385517   359.61185864
 C     13  12  11     1.407899780016   120.31759251   359.56047289
 C      3   1   2     1.876017169732   113.95555002     4.05882473
 C      5   2   1     1.413688944984   118.58839268    29.18628805
 C     15   3   1     1.411123770009   121.39584952    18.55108981
 C     17  15   3     1.406760730413   120.56352038   178.17456653
 C     18  17  15     1.403196456035   120.29131988     0.29941495
 C     19  18  17     1.406267552815   119.66440522   359.81057769
 C     20  19  18     1.402928503582   120.14116300   359.86878140
 C      3   1   2     1.873240326995   117.44114934   249.88187919
 C     22   3   1     1.415831141879   117.41296926    39.85651582
 C     23  22   3     1.402867565612   120.82288023   179.05797728
 C     24  23  22     1.405922966024   120.17534459     0.21423347
 C     25  24  23     1.403587907817   119.59232753   359.44578750
 C     16   5   2     1.405223320512   120.60554167   178.42099001
 C     26  25  24     1.406525768032   120.36680733     0.16769202
 C      3   1   2     1.869148632327   122.71874747   122.25558804
 C     29   3   1     1.415189215014   121.04811107   258.74681810
 C     30  29   3     1.405259586709   120.64984545   176.20912071
 C     31  30  29     1.404040268392   120.32806833     0.49192523
 C     32  31  30     1.404502418439   119.55695524   359.46601332
 C     33  32  31     1.404091766137   120.37657054   359.94201510
 C      4   1   2     1.872570358418   116.25968899    35.49133163
 C     35   4   1     1.414759507531   121.01541828    95.22989711
 C     36  35   4     1.405584460743   120.61208318   184.69407975
 C     27  16   5     1.405504771336   120.10125695     0.32775664
 C     37  36  35     1.404184825039   120.28985653   359.60923715
 C     39  37  36     1.405062959545   119.57550295     0.29983658
 C     40  39  37     1.404253986277   120.39163073     0.16711734
 C      4   1   2     1.865703820217   120.62165020   273.00802702
 C     42   4   1     1.416529884566   122.77565995   151.79653514
 C     43  42   4     1.404789876616   120.57617499   178.38825189
 C     44  43  42     1.404977438251   120.23265411   359.82459161
 C     45  44  43     1.404432002238   119.67931405     0.04576554
 C     46  45  44     1.405100079763   120.27710394     0.17620913
 C      4   1   2     1.878572918568   117.11905980   149.98470809
 C     38  27  16     1.405586046502   119.75280563   359.84403833
 C     48   4   1     1.413242728076   122.39450047   156.04037386
 C     50  48   4     1.404515238391   120.78172116   178.24053245
 C     51  50  48     1.405658823804   120.28460265   359.54975806
 C     52  51  50     1.404476605306   119.56567771     0.45381919
 C     53  52  51     1.406430363396   120.15103584     0.08676537
 C     49  38  27     1.405195136354   120.23831089   359.83327577
 C      8   7   6     1.413599806953   120.52958555     0.26809289
 C     56   8   7     1.415768247420   118.68381200     0.00000000
 C      6   2   1     1.404684343992    60.50628456   218.00101551
 H     10   9   2     1.094639412220   119.35389527   359.53416188
 H     11  10   9     1.094756081963   119.64876602   180.20462583
 H     12  11  10     1.094640163666   120.11337042   179.50743467
 H     13  12  11     1.094967499420   120.20179004   179.95976600
 H     14  13  12     1.092865078565   119.69396995   180.81940303
 H     41  40  39     1.093066818437   119.70446119   179.07327449
 H     40  39  37     1.094334248686   120.34422516   179.49419032
 H     39  37  36     1.094491775131   120.24194486   180.30884529
 H     37  36  35     1.095125094652   119.51810381   180.44083346
 H     36  35   4     1.093795333701   119.67871657     5.68110087
 H     50  48   4     1.093558058686   119.52520807   356.92790936
 H     51  50  48     1.094981082999   119.60268393   179.48111793
 H     52  51  50     1.094635355401   120.21986367   179.98175535
 H     53  52  51     1.094693567758   120.36101557   178.92661289
 H     54  53  52     1.094476698996   119.78511018   177.18109574
 H      8   7   6     1.094414702154   119.81320251   179.89044280
 H      7   6   2     1.094492682182   120.30984088   179.64577991
 H      6   2   1     1.094698735043   179.32999656    23.09552368
 H     58   6   2     1.094928608667   120.15791738   179.77918388
 H     57  56   8     1.093735193346   119.56542163   180.70329211
 H     55  49  38     1.093764267574   119.92316829   179.70507346
 H     16   5   2     1.094562418985   118.90409165   357.17272196
 H     27  16   5     1.094452905151   119.53907820   179.44805719
 H     38  27  16     1.094687949988   120.11257765   179.52462985
 H     49  38  27     1.094999106742   120.11864368   179.82703781
 H     21  20  19     1.093994829312   119.74811948   179.60200589
 H     20  19  18     1.094893437133   120.17248271   179.67127887
 H     19  18  17     1.094858367440   120.23782921   179.47370041
 H     18  17  15     1.094667291741   119.32330910   179.47753546
 H     17  15   3     1.093464425848   119.07198452   357.17070247
 H     23  22   3     1.095432418714   119.10347145   359.27189158
 H     28  26  25     1.093677828633   119.78818732   179.89256611
 H     26  25  24     1.095098221252   120.10792391   180.35036387
 H     24  23  22     1.095028965438   119.67431059   180.24874645
 H     25  24  23     1.094607456743   120.17784088   179.66385152
 H     34  33  32     1.092434330509   119.60552067   181.41994192
 H     30  29   3     1.093225073318   119.60320942   355.38229495
 H     31  30  29     1.095087194797   119.49613498   179.83066020
 H     32  31  30     1.094550202744   120.24684705   179.67359312
 H     33  32  31     1.094302100596   120.36095260   180.64444889
 H     43  42   4     1.093969123955   119.63178101   356.95540003
 H     47  46  45     1.094112921589   120.16587128   179.49510756
 H     46  45  44     1.094660710508   120.29122245   180.40872576
 H     45  44  43     1.094818496098   120.10884365   179.99437506
 H     44  43  42     1.094988467688   119.63170571   179.60343713
 H      1   2   3     1.755501814221    96.54308458   231.60814797
 H    104   1   2     0.897286362509    73.66030620    81.77203340
 H      1   2   3     1.615127984171    76.80325958   335.79094113
 H      1   2   3     1.630275213435    82.60044416    61.68161632

---------------------------
INTERNAL COORDINATES (A.U.)
---------------------------
 Ru     0   0   0     0.000000000000     0.00000000     0.00000000
 P      1   0   0     4.379785649579     0.00000000     0.00000000
 P      1   2   0     4.400637930053   149.64315660     0.00000000
 P      1   2   3     4.509542659548   103.77832771   152.06515892
 C      2   1   3     3.528018427234   121.07083856   248.65921242
 C      2   1   3     8.881937392452   118.85989875   122.16868880
 C      6   2   1     2.654390896737    59.18282419    38.10828769
 C      7   6   2     2.654107684143   120.31651863   359.78486888
 C      2   1   3     3.543277115429   112.80932606     5.32153582
 C      9   2   1     2.676245712313   118.83920864    59.25861546
 C     10   9   2     2.649317716524   120.77744586   180.29678579
 C     11  10   9     2.659357698419   120.15723246     0.78726209
 C     12  11  10     2.649953050231   119.61385517   359.61185864
 C     13  12  11     2.660545008237   120.31759251   359.56047289
 C      3   1   2     3.545158673327   113.95555002     4.05882473
 C      5   2   1     2.671484944571   118.58839268    29.18628805
 C     15   3   1     2.666637466384   121.39584952    18.55108981
 C     17  15   3     2.658392516436   120.56352038   178.17456653
 C     18  17  15     2.651657013996   120.29131988     0.29941495
 C     19  18  17     2.657460545839   119.66440522   359.81057769
 C     20  19  18     2.651150657241   120.14116300   359.86878140
 C      3   1   2     3.539911201038   117.44114934   249.88187919
 C     22   3   1     2.675533110027   117.41296926    39.85651582
 C     23  22   3     2.651035501167   120.82288023   179.05797728
 C     24  23  22     2.656809371176   120.17534459     0.21423347
 C     25  24  23     2.652396750657   119.59232753   359.44578750
 C     16   5   2     2.655487232767   120.60554167   178.42099001
 C     26  25  24     2.657948501884   120.36680733     0.16769202
 C      3   1   2     3.532179018691   122.71874747   122.25558804
 C     29   3   1     2.674320044055   121.04811107   258.74681810
 C     30  29   3     2.655555765948   120.64984545   176.20912071
 C     31  30  29     2.653251588258   120.32806833     0.49192523
 C     32  31  30     2.654124925280   119.55695524   359.46601332
 C     33  32  31     2.653348904892   120.37657054   359.94201510
 C      4   1   2     3.538645143908   116.25968899    35.49133163
 C     35   4   1     2.673508014595   121.01541828    95.22989711
 C     36  35   4     2.656169688899   120.61208318   184.69407975
 C     27  16   5     2.656019097745   120.10125695     0.32775664
 C     37  36  35     2.653524760731   120.28985653   359.60923715
 C     39  37  36     2.655184194457   119.57550295     0.29983658
 C     40  39  37     2.653655456530   120.39163073     0.16711734
 C      4   1   2     3.525669267220   120.62165020   273.00802702
 C     42   4   1     2.676853542344   122.77565995   151.79653514
 C     43  42   4     2.654668142509   120.57617499   178.38825189
 C     44  43  42     2.655022582632   120.23265411   359.82459161
 C     45  44  43     2.653991857944   119.67931405     0.04576554
 C     46  45  44     2.655254341503   120.27710394     0.17620913
 C      4   1   2     3.549988338695   117.11905980   149.98470809
 C     38  27  16     2.656172685550   119.75280563   359.84403833
 C     48   4   1     2.670641716820   122.39450047   156.04037386
 C     50  48   4     2.654149151478   120.78172116   178.24053245
 C     51  50  48     2.656310214720   120.28460265   359.54975806
 C     52  51  50     2.654076145527   119.56567771     0.45381919
 C     53  52  51     2.657768213250   120.15103584     0.08676537
 C     49  38  27     2.655433972427   120.23831089   359.83327577
 C      8   7   6     2.671316498105   120.52958555     0.26809289
 C     56   8   7     2.675414256726   118.68381200     0.00000000
 C      6   2   1     2.654468714752    60.50628456   218.00101551
 H     10   9   2     2.068568704492   119.35389527   359.53416188
 H     11  10   9     2.068789178354   119.64876602   180.20462583
 H     12  11  10     2.068570124519   120.11337042   179.50743467
 H     13  12  11     2.069188699448   120.20179004   179.95976600
 H     14  13  12     2.065215699813   119.69396995   180.81940303
 H     41  40  39     2.065596932923   119.70446119   179.07327449
 H     40  39  37     2.067992028988   120.34422516   179.49419032
 H     39  37  36     2.068289710827   120.24194486   180.30884529
 H     37  36  35     2.069486511277   119.51810381   180.44083346
 H     36  35   4     2.066973627256   119.67871657     5.68110087
 H     50  48   4     2.066525242458   119.52520807   356.92790936
 H     51  50  48     2.069214368693   119.60268393   179.48111793
 H     52  51  50     2.068561038216   120.21986367   179.98175535
 H     53  52  51     2.068671043627   120.36101557   178.92661289
 H     54  53  52     2.068261221061   119.78511018   177.18109574
 H      8   7   6     2.068144064007   119.81320251   179.89044280
 H      7   6   2     2.068291424904   120.30984088   179.64577991
 H      6   2   1     2.068680808382   179.32999656    23.09552368
 H     58   6   2     2.069115206576   120.15791738   179.77918388
 H     57  56   8     2.066859978455   119.56542163   180.70329211
 H     55  49  38     2.066914920784   119.92316829   179.70507346
 H     16   5   2     2.068423208364   118.90409165   357.17272196
 H     27  16   5     2.068216257210   119.53907820   179.44805719
 H     38  27  16     2.068660427581   120.11257765   179.52462985
 H     49  38  27     2.069248428630   120.11864368   179.82703781
 H     21  20  19     2.067350619325   119.74811948   179.60200589
 H     20  19  18     2.069048742010   120.17248271   179.67127887
 H     19  18  17     2.068982469894   120.23782921   179.47370041
 H     18  17  15     2.068621389152   119.32330910   179.47753546
 H     17  15   3     2.066348302039   119.07198452   357.17070247
 H     23  22   3     2.070067269589   119.10347145   359.27189158
 H     28  26  25     2.066751574858   119.78818732   179.89256611
 H     26  25  24     2.069435727911   120.10792391   180.35036387
 H     24  23  22     2.069304853390   119.67431059   180.24874645
 H     25  24  23     2.068508317393   120.17784088   179.66385152
 H     34  33  32     2.064401703955   119.60552067   181.41994192
 H     30  29   3     2.065895991307   119.60320942   355.38229495
 H     31  30  29     2.069414890931   119.49613498   179.83066020
 H     32  31  30     2.068400123013   120.24684705   179.67359312
 H     33  32  31     2.067931277901   120.36095260   180.64444889
 H     43  42   4     2.067302043240   119.63178101   356.95540003
 H     47  46  45     2.067573781389   120.16587128   179.49510756
 H     46  45  44     2.068608952423   120.29122245   180.40872576
 H     45  44  43     2.068907123977   120.10884365   179.99437506
 H     44  43  42     2.069228323733   119.63170571   179.60343713
 H      1   2   3     3.317417656479    96.54308458   231.60814797
 H    104   1   2     1.695625488844    73.66030620    81.77203340
 H      1   2   3     3.052149561315    76.80325958   335.79094113
 H      1   2   3     3.080773676313    82.60044416    61.68161632

---------------------
BASIS SET INFORMATION
---------------------
There are 4 groups of distinct atoms

 Group   1 Type Ru  : 9s8p7d3f1g contracted to 7s5p4d3f1g pattern {3111111/41111/4111/111/1}
 Group   2 Type P   : 20s14p4d2f1g contracted to 9s6p4d2f1g pattern {1031111111/821111/1111/11/1}
 Group   3 Type C   : 15s8p3d2f1g contracted to 7s4p3d2f1g pattern {8211111/5111/111/11/1}
 Group   4 Type H   : 7s3p2d1f contracted to 4s3p2d1f pattern {4111/111/11/1}

Atom   0Ru   basis set group =>   1
Atom   1P    basis set group =>   2
Atom   2P    basis set group =>   2
Atom   3P    basis set group =>   2
Atom   4C    basis set group =>   3
Atom   5C    basis set group =>   3
Atom   6C    basis set group =>   3
Atom   7C    basis set group =>   3
Atom   8C    basis set group =>   3
Atom   9C    basis set group =>   3
Atom  10C    basis set group =>   3
Atom  11C    basis set group =>   3
Atom  12C    basis set group =>   3
Atom  13C    basis set group =>   3
Atom  14C    basis set group =>   3
Atom  15C    basis set group =>   3
Atom  16C    basis set group =>   3
Atom  17C    basis set group =>   3
Atom  18C    basis set group =>   3
Atom  19C    basis set group =>   3
Atom  20C    basis set group =>   3
Atom  21C    basis set group =>   3
Atom  22C    basis set group =>   3
Atom  23C    basis set group =>   3
Atom  24C    basis set group =>   3
Atom  25C    basis set group =>   3
Atom  26C    basis set group =>   3
Atom  27C    basis set group =>   3
Atom  28C    basis set group =>   3
Atom  29C    basis set group =>   3
Atom  30C    basis set group =>   3
Atom  31C    basis set group =>   3
Atom  32C    basis set group =>   3
Atom  33C    basis set group =>   3
Atom  34C    basis set group =>   3
Atom  35C    basis set group =>   3
Atom  36C    basis set group =>   3
Atom  37C    basis set group =>   3
Atom  38C    basis set group =>   3
Atom  39C    basis set group =>   3
Atom  40C    basis set group =>   3
Atom  41C    basis set group =>   3
Atom  42C    basis set group =>   3
Atom  43C    basis set group =>   3
Atom  44C    basis set group =>   3
Atom  45C    basis set group =>   3
Atom  46C    basis set group =>   3
Atom  47C    basis set group =>   3
Atom  48C    basis set group =>   3
Atom  49C    basis set group =>   3
Atom  50C    basis set group =>   3
Atom  51C    basis set group =>   3
Atom  52C    basis set group =>   3
Atom  53C    basis set group =>   3
Atom  54C    basis set group =>   3
Atom  55C    basis set group =>   3
Atom  56C    basis set group =>   3
Atom  57C    basis set group =>   3
Atom  58H    basis set group =>   4
Atom  59H    basis set group =>   4
Atom  60H    basis set group =>   4
Atom  61H    basis set group =>   4
Atom  62H    basis set group =>   4
Atom  63H    basis set group =>   4
Atom  64H    basis set group =>   4
Atom  65H    basis set group =>   4
Atom  66H    basis set group =>   4
Atom  67H    basis set group =>   4
Atom  68H    basis set group =>   4
Atom  69H    basis set group =>   4
Atom  70H    basis set group =>   4
Atom  71H    basis set group =>   4
Atom  72H    basis set group =>   4
Atom  73H    basis set group =>   4
Atom  74H    basis set group =>   4
Atom  75H    basis set group =>   4
Atom  76H    basis set group =>   4
Atom  77H    basis set group =>   4
Atom  78H    basis set group =>   4
Atom  79H    basis set group =>   4
Atom  80H    basis set group =>   4
Atom  81H    basis set group =>   4
Atom  82H    basis set group =>   4
Atom  83H    basis set group =>   4
Atom  84H    basis set group =>   4
Atom  85H    basis set group =>   4
Atom  86H    basis set group =>   4
Atom  87H    basis set group =>   4
Atom  88H    basis set group =>   4
Atom  89H    basis set group =>   4
Atom  90H    basis set group =>   4
Atom  91H    basis set group =>   4
Atom  92H    basis set group =>   4
Atom  93H    basis set group =>   4
Atom  94H    basis set group =>   4
Atom  95H    basis set group =>   4
Atom  96H    basis set group =>   4
Atom  97H    basis set group =>   4
Atom  98H    basis set group =>   4
Atom  99H    basis set group =>   4
Atom 100H    basis set group =>   4
Atom 101H    basis set group =>   4
Atom 102H    basis set group =>   4
Atom 103H    basis set group =>   4
Atom 104H    basis set group =>   4
Atom 105H    basis set group =>   4
Atom 106H    basis set group =>   4
---------------------------------
AUXILIARY/J BASIS SET INFORMATION
---------------------------------
There are 4 groups of distinct atoms

 Group   1 Type Ru  : 11s5p5d3f3g contracted to 8s5p5d2f3g pattern {41111111/11111/11111/21/111}
 Group   2 Type P   : 14s5p5d2f1g contracted to 8s4p3d1f1g pattern {71111111/2111/311/2/1}
 Group   3 Type C   : 12s5p4d2f1g contracted to 6s4p3d1f1g pattern {711111/2111/211/2/1}
 Group   4 Type H   : 5s2p1d contracted to 3s1p1d pattern {311/2/1}

Atom   0Ru   basis set group =>   1
Atom   1P    basis set group =>   2
Atom   2P    basis set group =>   2
Atom   3P    basis set group =>   2
Atom   4C    basis set group =>   3
Atom   5C    basis set group =>   3
Atom   6C    basis set group =>   3
Atom   7C    basis set group =>   3
Atom   8C    basis set group =>   3
Atom   9C    basis set group =>   3
Atom  10C    basis set group =>   3
Atom  11C    basis set group =>   3
Atom  12C    basis set group =>   3
Atom  13C    basis set group =>   3
Atom  14C    basis set group =>   3
Atom  15C    basis set group =>   3
Atom  16C    basis set group =>   3
Atom  17C    basis set group =>   3
Atom  18C    basis set group =>   3
Atom  19C    basis set group =>   3
Atom  20C    basis set group =>   3
Atom  21C    basis set group =>   3
Atom  22C    basis set group =>   3
Atom  23C    basis set group =>   3
Atom  24C    basis set group =>   3
Atom  25C    basis set group =>   3
Atom  26C    basis set group =>   3
Atom  27C    basis set group =>   3
Atom  28C    basis set group =>   3
Atom  29C    basis set group =>   3
Atom  30C    basis set group =>   3
Atom  31C    basis set group =>   3
Atom  32C    basis set group =>   3
Atom  33C    basis set group =>   3
Atom  34C    basis set group =>   3
Atom  35C    basis set group =>   3
Atom  36C    basis set group =>   3
Atom  37C    basis set group =>   3
Atom  38C    basis set group =>   3
Atom  39C    basis set group =>   3
Atom  40C    basis set group =>   3
Atom  41C    basis set group =>   3
Atom  42C    basis set group =>   3
Atom  43C    basis set group =>   3
Atom  44C    basis set group =>   3
Atom  45C    basis set group =>   3
Atom  46C    basis set group =>   3
Atom  47C    basis set group =>   3
Atom  48C    basis set group =>   3
Atom  49C    basis set group =>   3
Atom  50C    basis set group =>   3
Atom  51C    basis set group =>   3
Atom  52C    basis set group =>   3
Atom  53C    basis set group =>   3
Atom  54C    basis set group =>   3
Atom  55C    basis set group =>   3
Atom  56C    basis set group =>   3
Atom  57C    basis set group =>   3
Atom  58H    basis set group =>   4
Atom  59H    basis set group =>   4
Atom  60H    basis set group =>   4
Atom  61H    basis set group =>   4
Atom  62H    basis set group =>   4
Atom  63H    basis set group =>   4
Atom  64H    basis set group =>   4
Atom  65H    basis set group =>   4
Atom  66H    basis set group =>   4
Atom  67H    basis set group =>   4
Atom  68H    basis set group =>   4
Atom  69H    basis set group =>   4
Atom  70H    basis set group =>   4
Atom  71H    basis set group =>   4
Atom  72H    basis set group =>   4
Atom  73H    basis set group =>   4
Atom  74H    basis set group =>   4
Atom  75H    basis set group =>   4
Atom  76H    basis set group =>   4
Atom  77H    basis set group =>   4
Atom  78H    basis set group =>   4
Atom  79H    basis set group =>   4
Atom  80H    basis set group =>   4
Atom  81H    basis set group =>   4
Atom  82H    basis set group =>   4
Atom  83H    basis set group =>   4
Atom  84H    basis set group =>   4
Atom  85H    basis set group =>   4
Atom  86H    basis set group =>   4
Atom  87H    basis set group =>   4
Atom  88H    basis set group =>   4
Atom  89H    basis set group =>   4
Atom  90H    basis set group =>   4
Atom  91H    basis set group =>   4
Atom  92H    basis set group =>   4
Atom  93H    basis set group =>   4
Atom  94H    basis set group =>   4
Atom  95H    basis set group =>   4
Atom  96H    basis set group =>   4
Atom  97H    basis set group =>   4
Atom  98H    basis set group =>   4
Atom  99H    basis set group =>   4
Atom 100H    basis set group =>   4
Atom 101H    basis set group =>   4
Atom 102H    basis set group =>   4
Atom 103H    basis set group =>   4
Atom 104H    basis set group =>   4
Atom 105H    basis set group =>   4
Atom 106H    basis set group =>   4
-------------------------
ECP PARAMETER INFORMATION
-------------------------

 Group 1, Type Ru ECP Def2-ECP (replacing 28 core electrons, lmax=3)

Atom   0Ru   ECP group =>   1

------------------------------------------------------------------------------
                             ORCA STARTUP CALCULATIONS
                           -- RI-GTO INTEGRALS CHOSEN --
------------------------------------------------------------------------------
------------------------------------------------------------------------------
                   ___                                                        
                  /   \      - P O W E R E D   B Y -                         
                 /     \                                                     
                 |  |  |   _    _      __       _____    __    __             
                 |  |  |  | |  | |    /  \     |  _  \  |  |  /  |          
                  \  \/   | |  | |   /    \    | | | |  |  | /  /          
                 / \  \   | |__| |  /  /\  \   | |_| |  |  |/  /          
                |  |  |   |  __  | /  /__\  \  |    /   |      \           
                |  |  |   | |  | | |   __   |  |    \   |  |\   \          
                \     /   | |  | | |  |  |  |  | |\  \  |  | \   \       
                 \___/    |_|  |_| |__|  |__|  |_| \__\ |__|  \__/        
                                                                              
                      - O R C A' S   B I G   F R I E N D -                    
                                      &                                       
                       - I N T E G R A L  F E E D E R -                       
                                                                              
 v1 FN, 2020, v2 2021, v3 2022-2024                                           
------------------------------------------------------------------------------


----------------------
SHARK INTEGRAL PACKAGE
----------------------

Number of atoms                             ...    107
Number of basis functions                   ...   4830
Number of shells                            ...   1494
Maximum angular momentum                    ...      4
Integral batch strategy                     ... SHARK/LIBINT Hybrid
RI-J (if used) integral strategy            ... SPLIT-RIJ (Revised 2003 algorithm where possible)
Printlevel                                  ...      1
Contraction scheme used                     ... SEGMENTED contraction
Prescreening option                         ... SCHWARTZ
   Thresh                                   ... 1.000e-12
   Tcut                                     ... 1.000e-14
   Tpresel                                  ... 1.000e-14 
Coulomb Range Separation                    ... NOT USED
Exchange Range Separation                   ... NOT USED
Multipole approximations                    ... NOT USED
Finite Nucleus Model                        ... NOT USED
CABS basis                                  ... NOT available
Auxiliary Coulomb fitting basis             ... AVAILABLE
   # of basis functions in Aux-J            ...   3427
   # of shells in Aux-J                     ...   1129
   Maximum angular momentum in Aux-J        ...      4
Auxiliary J/K fitting basis                 ... NOT available
Auxiliary Correlation fitting basis         ... NOT available
Auxiliary 'external' fitting basis          ... NOT available

Checking pre-screening integrals            ... done (  0.0 sec) Dimension = 1494
   => SHARK Basis and OBASIS are compatible. Storing Pre-screening
Shell pair information
Shell pair cut-off parameter TPreSel        ...   1.0e-14
Total number of shell pairs                 ...   1116765
Shell pairs after pre-screening             ...    529067
Total number of primitive shell pairs       ...   2774481
Primitive shell pairs kept                  ...    855580
          la=0 lb=0:  86420 shell pairs
          la=1 lb=0: 126527 shell pairs
          la=1 lb=1:  45463 shell pairs
          la=2 lb=0:  73133 shell pairs
          la=2 lb=1:  55182 shell pairs
          la=2 lb=2:  15662 shell pairs
          la=3 lb=0:  40169 shell pairs
          la=3 lb=1:  31154 shell pairs
          la=3 lb=2:  16733 shell pairs
          la=3 lb=3:   4461 shell pairs
          la=4 lb=0:  14021 shell pairs
          la=4 lb=1:  10793 shell pairs
          la=4 lb=2:   5763 shell pairs
          la=4 lb=3:   3041 shell pairs
          la=4 lb=4:    545 shell pairs

Checking whether 4 symmetric matrices of dimension 4830 fit in memory
:Max Core in MB      =   4096.00
 MB in use           =    624.13
 MB left             =   3471.87
 MB needed           =    356.04
 Data fit in memory  = YES
Calculating RI/J V-Matrix + Cholesky decomp.... done (  0.7 sec)
Calculating Nuclear repulsion               ... done (  0.0 sec) ENN=   9588.617609795761 Eh

Diagonalization of the overlap matrix:
Smallest eigenvalue                        ... 1.397e-06
Time for diagonalization                   ...   26.672 sec
Threshold for overlap eigenvalues          ... 1.000e-07
Number of eigenvalues below threshold      ... 0
Time for construction of square roots      ...   13.460 sec
Total time needed                          ...   40.267 sec

-------------------
DFT GRID GENERATION
-------------------

General Integration Accuracy     IntAcc      ... 4.959
Radial Grid Type                 RadialGrid  ... OptM3 with GC (2021)
Angular Grid (max. ang.)         AngularGrid ... 6 (Lebedev-590)
Angular grid pruning method      GridPruning ... 4 (adaptive)
Weight generation scheme         WeightScheme... mBecke (2022)
Basis function cutoff            BFCut       ... 1.0000e-12
Integration weight cutoff        WCut        ... 1.0000e-14
Partially contracted basis set               ... off
Rotationally invariant grid construction     ... off
Angular grids for H and He will be reduced by one unit
Diffuse basis detected: some atoms will have their outermost
                        angular grid increased by 1.

Total number of grid points                  ...  1245975
Total number of batches                      ...    19523
Average number of points per batch           ...       63
Average number of grid points per atom       ...    11645
Grids setup in  43.5 sec
Initializing property integral containers    ... done (  0.0 sec)

SHARK setup successfully completed in 125.1 seconds

Maximum memory used throughout the entire STARTUP-calculation: 2773.8 MB
-------------------------------------------------------------------------------
                                 ORCA GUESS
                   Start orbitals & Density for SCF / CASSCF
-------------------------------------------------------------------------------

------------
SCF SETTINGS
------------
Hamiltonian:
 Density Functional     Method          .... DFT(GTOs)
 Exchange Functional    Exchange        .... B88
   X-Alpha parameter    XAlpha          ....  0.666667
   Becke's b parameter  XBeta           ....  0.004200
 Correlation Functional Correlation     .... P86
 LDA part of GGA corr.  LDAOpt          .... PW91-LDA
 Gradients option       PostSCFGGA      .... off
   NL short-range parameter             ....  4.400000
 RI-approximation to the Coulomb term is turned on
   Number of AuxJ basis functions       .... 3427


General Settings:
 Integral files         IntName         .... 1b_def2qzvp
 Hartree-Fock type      HFTyp           .... RHF
 Total Charge           Charge          ....    0
 Multiplicity           Mult            ....    1
 Number of Electrons    NEL             ....  434
 Basis Dimension        Dim             .... 4830
 Nuclear Repulsion      ENuc            ....   9588.6176097958 Eh

Convergence Acceleration:
 AO-DIIS                CNVDIIS         .... on
   Start iteration      DIISMaxIt       ....    12
   Startup error        DIISStart       ....  0.200000
   # of expansion vecs  DIISMaxEq       ....     5
   Bias factor          DIISBfac        ....   1.050
   Max. coefficient     DIISMaxC        ....  10.000
 MO-DIIS                CNVKDIIS        .... off
 Trust-Rad. Augm. Hess. CNVTRAH         .... auto
   Auto Start mean grad. ratio tolernc. ....  1.125000
   Auto Start start iteration           ....    50
   Auto Start num. interpolation iter.  ....    10
   Max. Number of Micro iterations      ....    24
   Max. Number of Macro iterations      .... Maxiter - #DIIS iter
   Number of Davidson start vectors     ....     2
   Converg. threshold    (grad. norm)   ....   2.000e-06
   Grad. Scal. Fac. for Micro threshold ....   0.100
   Minimum threshold for Micro iter.    ....   1.000e-02
   NR start threshold (gradient norm)   ....   1.000e-04
   Initial trust radius                 ....   0.400
   Minimum AH scaling param. (alpha)    ....   1.000
   Maximum AH scaling param. (alpha)    .... 1000.000
   Quad. conv. algorithm                .... NR
   White noise on init. David. guess    .... on
   Maximum white noise                  ....   0.010
   Pseudo random numbers                .... off
   Inactive MOs                         .... canonical
   Orbital update algorithm             .... Taylor
   Preconditioner                       .... Diag
   Full preconditioner red. dimension   ....   250
 SOSCF                 CNVSOSCF           .... on
   Start iteration     SOSCFMaxIt         ....   150
   Startup grad/error  SOSCFStart         ....  0.003300
   Hessian update      SOSCFHessUp        .... L-BFGS
   Autom. constraints  SOSCFAutoConstrain .... off
 Level Shifting         CNVShift        .... on
   Level shift para.    LevelShift      ....    0.2500
   Turn off err/grad.   ShiftErr        ....    0.0010
 Zerner damping         CNVZerner       .... off
 Static damping         CNVDamp         .... on
   Fraction old density DampFac         ....    0.7000
   Max. Damping (<1)    DampMax         ....    0.9800
   Min. Damping (>=0)   DampMin         ....    0.0000
   Turn off err/grad.   DampErr         ....    0.1000

SCF Procedure:
 Maximum # iterations   MaxIter         ....   125
 SCF integral mode      SCFMode         .... Direct
   Integral package                     .... SHARK and LIBINT hybrid scheme
 Reset frequency        DirectResetFreq ....    20
 Integral Threshold     Thresh          ....  1.000e-12 Eh
 Primitive CutOff       TCut            ....  1.000e-14 Eh

Convergence Tolerance:
 Convergence Check Mode ConvCheckMode   .... Total+1el-Energy
 Convergence forced     ConvForced      .... 0
 Energy Change          TolE            ....  1.000e-09 Eh
 1-El. energy change                    ....  1.000e-06 Eh
 Orbital Gradient       TolG            ....  2.000e-06
 Orbital Rotation angle TolX            ....  2.000e-06
 DIIS Error             TolErr          ....  1.000e-08

------------------------------
INITIAL GUESS: MODEL POTENTIAL
------------------------------
Loading Hartree-Fock densities                     ... done
Atomic calculation to generate a density for atom 0 (Ru with ECP)
  Multiplicity assumed   :    5
  Atomic configuration   : 1s2 2s2 2p6 3s2 3p6 4s2 3d10 4p6 5s2 4d6 
  Number of open shells  : 1
  Command: /home/ylvao/work/software/orca_6_1_1_linux_x86-64_shared_openmpi418/orca 1b_def2qzvp_atom44.inp "" > 1b_def2qzvp_atom44.out
Returned from the atomic calculation with res=0
Calculating cut-offs                               ... done
Initializing the effective Hamiltonian             ... done
Setting up the integral package (SHARK)            ... done
Starting the Coulomb interaction                   ... done ( 148.6 sec)
Making the grid                                    ... done (   5.4 sec)
Mapping shells                                     ... done
Starting the XC term evaluation                    ... done (  40.4 sec)
  promolecular density results
     # of electrons  =    461.977252912
     EX              =   -489.226744679
     EC              =    -18.136519513
     EX+EC           =   -507.363264192
Transforming the Hamiltonian                       ... done (  13.2 sec)
Diagonalizing the Hamiltonian                      ... done (  24.8 sec)
Back transforming the eigenvectors                 ... done (   6.3 sec)
Now organizing SCF variables                       ... done
                      ------------------
                      INITIAL GUESS DONE ( 241.4 sec)
                      ------------------
             **** ENERGY FILE WAS UPDATED (1b_def2qzvp.en.tmp) ****
Finished Guess after 245.0 sec
Maximum memory used throughout the entire GUESS-calculation: 2247.5 MB

-------------------------------------------------------------------------------------------
                                      ORCA LEAN-SCF
                              memory conserving SCF solver
-------------------------------------------------------------------------------------------

----------------------------------------D-I-I-S--------------------------------------------
Iteration    Energy (Eh)           Delta-E    RMSDP     MaxDP     DIISErr   Damp  Time(sec)
-------------------------------------------------------------------------------------------
               ***  Starting incremental Fock matrix formation  ***
    1    -3205.2874574928428046     0.00e+00  2.78e-03  2.09e+00  7.69e-01  0.700 831.6
Warning: op=0 Small HOMO/LUMO gap (  -0.363) - skipping pre-diagonalization
         LevelShift set to 0.463 Eh
         Will do a full diagonalization
    2    -3206.2835065708914044    -9.96e-01  5.48e-04  2.67e-01  2.82e-01  0.700 994.8
                               ***Turning on AO-DIIS***
    3    -3206.6022789614326030    -3.19e-01  5.67e-04  3.62e-01  1.82e-01  0.700 608.4
    4    -3206.8508559578331187    -2.49e-01  5.15e-04  3.92e-01  1.31e-01  0.700 573.9
    5    -3207.0254539557427051    -1.75e-01  4.21e-04  3.36e-01  9.67e-02  0.700 837.9
    6    -3207.1442723814507190    -1.19e-01  1.10e-03  8.71e-01  7.23e-02  0.000 992.3
    7    -3207.4206876602202101    -2.76e-01  1.04e-04  8.40e-02  6.80e-02  0.000 845.6
    8    -3207.4393943034447148    -1.87e-02  7.07e-05  4.56e-02  3.72e-02  0.000 576.4
    9    -3207.4477035629606689    -8.31e-03  4.33e-05  2.42e-02  1.49e-02  0.000 549.4
   10    -3207.4500287965911411    -2.33e-03  2.75e-05  1.71e-02  3.61e-03  0.000 684.6
                              *** Initializing SOSCF ***
---------------------------------------S-O-S-C-F--------------------------------------
Iteration    Energy (Eh)           Delta-E    RMSDP     MaxDP     MaxGrad    Time(sec)
--------------------------------------------------------------------------------------
   11    -3207.4509391163082910    -9.10e-04  1.91e-05  1.24e-02  2.70e-03   615.7
               *** Restarting incremental Fock matrix formation ***
   12    -3207.4513833958699252    -4.44e-04  4.79e-05  3.48e-02  4.13e-03   736.9
   13    -3207.4518772621086100    -4.94e-04  4.62e-05  3.18e-02  1.91e-03   510.7
   14    -3207.4505611744298221     1.32e-03  4.15e-05  2.95e-02  3.92e-03   505.4
   15    -3207.4520730302101583    -1.51e-03  1.66e-05  8.67e-03  5.79e-04   486.6
   16    -3207.4515655465638702     5.07e-04  1.37e-05  7.21e-03  2.00e-03   410.4
   17    -3207.4521251482019579    -5.60e-04  4.75e-06  1.90e-03  1.55e-04   388.9
   18    -3207.4520806382497540     4.45e-05  3.36e-06  1.98e-03  4.29e-04   346.7
   19    -3207.4521320079766156    -5.14e-05  1.93e-06  8.94e-04  5.96e-05   349.0
   20    -3207.4521277773146721     4.23e-06  1.23e-06  4.16e-04  9.66e-05   348.7
   21    -3207.4521331421947252    -5.36e-06  5.82e-07  2.80e-04  1.84e-05   339.5
   22    -3207.4521326031954231     5.39e-07  3.66e-07  9.38e-05  4.53e-05   321.9
   23    -3207.4521332437434467    -6.41e-07  3.04e-07  2.54e-04  9.15e-06   313.9
   24    -3207.4521331847736292     5.90e-08  1.67e-07  6.38e-05  1.95e-05   292.8
   25    -3207.4521332595268177    -7.48e-08  2.53e-07  2.88e-04  3.74e-06   276.4
   26    -3207.4521332406802685     1.88e-08  1.08e-07  2.21e-05  8.31e-06   275.9
   27    -3207.4521332599451853    -1.93e-08  1.75e-07  7.91e-05  1.10e-06   268.9
   28    -3207.4521332570366212     2.91e-09  9.69e-08  7.89e-05  2.61e-06   265.8
   29    -3207.4521332586227800    -1.59e-09  2.11e-07  1.49e-04  3.22e-07   258.2
                  *** Gradient check signals convergence ***

               *****************************************************
               *                     SUCCESS                       *
               *           SCF CONVERGED AFTER  29 CYCLES          *
               *****************************************************

             **** ENERGY FILE WAS UPDATED (1b_def2qzvp.en.tmp) ****

----------------
TOTAL SCF ENERGY
----------------

Total Energy       :      -3207.45213325329860 Eh          -87279.20974 eV

Components:
Nuclear Repulsion  :       9588.61760979576138 Eh          260919.55006 eV
Electronic Energy  :     -12796.06974304905998 Eh         -348198.75979 eV
One Electron Energy:     -23523.47866802041972 Eh         -640106.39694 eV
Two Electron Energy:      10727.40892497135974 Eh          291907.63715 eV

Virial components:
Potential Energy   :      -6340.52405931413432 Eh         -172534.43113 eV
Kinetic Energy     :       3133.07192606083572 Eh           85255.22140 eV
Virial Ratio       :          2.02374034460357

DFT components:
N(Alpha)           :      217.000071242420 electrons
N(Beta)            :      217.000071242420 electrons
N(Total)           :      434.000142484840 electrons
E(X)               :     -375.137087184727 Eh       
E(C)               :      -16.177615683761 Eh       
E(XC)              :     -391.314702868488 Eh       

---------------
SCF CONVERGENCE
---------------

  Last Energy change         ...    1.5862e-09  Tolerance :   1.0000e-09
  Last MAX-Density change    ...    1.4931e-04  Tolerance :   1.0000e-08
  Last RMS-Density change    ...    2.1116e-07  Tolerance :   1.0000e-09
  Last DIIS Error            ...    2.6976e-03  Tolerance :   1.0000e-08
  Last Orbital Gradient      ...    3.2198e-07  Tolerance :   2.0000e-06
  Last Orbital Rotation      ...    1.4345e-06  Tolerance :   2.0000e-06


----------------
ORBITAL ENERGIES
----------------

  NO   OCC          E(Eh)            E(eV) 
   0   2.0000     -76.362305     -2077.9240 
   1   2.0000     -76.361604     -2077.9049 
   2   2.0000     -76.359090     -2077.8365 
   3   2.0000      -9.916795      -269.8497 
   4   2.0000      -9.915813      -269.8230 
   5   2.0000      -9.915031      -269.8017 
   6   2.0000      -9.914761      -269.7944 
   7   2.0000      -9.914118      -269.7769 
   8   2.0000      -9.913624      -269.7634 
   9   2.0000      -9.913426      -269.7580 
  10   2.0000      -9.912762      -269.7400 
  11   2.0000      -9.912516      -269.7333 
  12   2.0000      -9.911399      -269.7029 
  13   2.0000      -9.911045      -269.6933 
  14   2.0000      -9.910862      -269.6883 
  15   2.0000      -9.910093      -269.6673 
  16   2.0000      -9.909551      -269.6526 
  17   2.0000      -9.909481      -269.6507 
  18   2.0000      -9.909467      -269.6503 
  19   2.0000      -9.909245      -269.6443 
  20   2.0000      -9.909192      -269.6428 
  21   2.0000      -9.909129      -269.6411 
  22   2.0000      -9.908775      -269.6315 
  23   2.0000      -9.908740      -269.6305 
  24   2.0000      -9.908716      -269.6299 
  25   2.0000      -9.908544      -269.6252 
  26   2.0000      -9.908489      -269.6237 
  27   2.0000      -9.908461      -269.6229 
  28   2.0000      -9.907837      -269.6059 
  29   2.0000      -9.907699      -269.6022 
  30   2.0000      -9.907619      -269.6000 
  31   2.0000      -9.907257      -269.5902 
  32   2.0000      -9.906888      -269.5801 
  33   2.0000      -9.906750      -269.5764 
  34   2.0000      -9.906336      -269.5651 
  35   2.0000      -9.906333      -269.5650 
  36   2.0000      -9.906248      -269.5627 
  37   2.0000      -9.906170      -269.5606 
  38   2.0000      -9.906025      -269.5567 
  39   2.0000      -9.906019      -269.5565 
  40   2.0000      -9.905853      -269.5520 
  41   2.0000      -9.905646      -269.5463 
  42   2.0000      -9.905543      -269.5435 
  43   2.0000      -9.905387      -269.5393 
  44   2.0000      -9.905330      -269.5377 
  45   2.0000      -9.905319      -269.5374 
  46   2.0000      -9.905196      -269.5341 
  47   2.0000      -9.905177      -269.5336 
  48   2.0000      -9.905032      -269.5296 
  49   2.0000      -9.904873      -269.5253 
  50   2.0000      -9.904310      -269.5100 
  51   2.0000      -9.904259      -269.5086 
  52   2.0000      -9.904184      -269.5065 
  53   2.0000      -9.903580      -269.4901 
  54   2.0000      -9.903110      -269.4773 
  55   2.0000      -9.901236      -269.4263 
  56   2.0000      -9.898564      -269.3536 
  57   2.0000      -6.325486      -172.1252 
  58   2.0000      -6.325054      -172.1135 
  59   2.0000      -6.322964      -172.0566 
  60   2.0000      -4.541672      -123.5852 
  61   2.0000      -4.541488      -123.5802 
  62   2.0000      -4.541237      -123.5734 
  63   2.0000      -4.540972      -123.5661 
  64   2.0000      -4.539024      -123.5131 
  65   2.0000      -4.538901      -123.5098 
  66   2.0000      -4.538726      -123.5050 
  67   2.0000      -4.538301      -123.4934 
  68   2.0000      -4.536207      -123.4365 
  69   2.0000      -2.839753       -77.2736 
  70   2.0000      -1.723423       -46.8967 
  71   2.0000      -1.722379       -46.8683 
  72   2.0000      -1.720737       -46.8236 
  73   2.0000      -0.783730       -21.3264 
  74   2.0000      -0.782084       -21.2816 
  75   2.0000      -0.780637       -21.2422 
  76   2.0000      -0.776048       -21.1173 
  77   2.0000      -0.774856       -21.0849 
  78   2.0000      -0.773749       -21.0548 
  79   2.0000      -0.773284       -21.0421 
  80   2.0000      -0.772497       -21.0207 
  81   2.0000      -0.769941       -20.9512 
  82   2.0000      -0.701831       -19.0978 
  83   2.0000      -0.700365       -19.0579 
  84   2.0000      -0.699162       -19.0252 
  85   2.0000      -0.679705       -18.4957 
  86   2.0000      -0.677548       -18.4370 
  87   2.0000      -0.677086       -18.4245 
  88   2.0000      -0.676243       -18.4015 
  89   2.0000      -0.675417       -18.3790 
  90   2.0000      -0.675267       -18.3749 
  91   2.0000      -0.674708       -18.3598 
  92   2.0000      -0.674495       -18.3539 
  93   2.0000      -0.671303       -18.2671 
  94   2.0000      -0.670504       -18.2453 
  95   2.0000      -0.670227       -18.2378 
  96   2.0000      -0.669629       -18.2215 
  97   2.0000      -0.669147       -18.2084 
  98   2.0000      -0.668759       -18.1979 
  99   2.0000      -0.666282       -18.1305 
 100   2.0000      -0.591658       -16.0998 
 101   2.0000      -0.589271       -16.0349 
 102   2.0000      -0.588150       -16.0044 
 103   2.0000      -0.551815       -15.0156 
 104   2.0000      -0.549628       -14.9561 
 105   2.0000      -0.549065       -14.9408 
 106   2.0000      -0.546159       -14.8617 
 107   2.0000      -0.545695       -14.8491 
 108   2.0000      -0.544536       -14.8176 
 109   2.0000      -0.543975       -14.8023 
 110   2.0000      -0.543105       -14.7786 
 111   2.0000      -0.540859       -14.7175 
 112   2.0000      -0.537160       -14.6169 
 113   2.0000      -0.535526       -14.5724 
 114   2.0000      -0.535386       -14.5686 
 115   2.0000      -0.535175       -14.5628 
 116   2.0000      -0.534643       -14.5484 
 117   2.0000      -0.531892       -14.4735 
 118   2.0000      -0.506409       -13.7801 
 119   2.0000      -0.504212       -13.7203 
 120   2.0000      -0.502488       -13.6734 
 121   2.0000      -0.466974       -12.7070 
 122   2.0000      -0.465044       -12.6545 
 123   2.0000      -0.464699       -12.6451 
 124   2.0000      -0.463917       -12.6238 
 125   2.0000      -0.462845       -12.5947 
 126   2.0000      -0.461128       -12.5479 
 127   2.0000      -0.449094       -12.2205 
 128   2.0000      -0.447728       -12.1833 
 129   2.0000      -0.445918       -12.1340 
 130   2.0000      -0.431266       -11.7353 
 131   2.0000      -0.410429       -11.1683 
 132   2.0000      -0.408424       -11.1138 
 133   2.0000      -0.408038       -11.1033 
 134   2.0000      -0.406734       -11.0678 
 135   2.0000      -0.406204       -11.0534 
 136   2.0000      -0.405820       -11.0429 
 137   2.0000      -0.405043       -11.0218 
 138   2.0000      -0.403683       -10.9848 
 139   2.0000      -0.402350       -10.9485 
 140   2.0000      -0.401221       -10.9178 
 141   2.0000      -0.399755       -10.8779 
 142   2.0000      -0.399485       -10.8705 
 143   2.0000      -0.399087       -10.8597 
 144   2.0000      -0.398899       -10.8546 
 145   2.0000      -0.397100       -10.8057 
 146   2.0000      -0.395299       -10.7566 
 147   2.0000      -0.393400       -10.7050 
 148   2.0000      -0.392054       -10.6683 
 149   2.0000      -0.377397       -10.2695 
 150   2.0000      -0.376623       -10.2484 
 151   2.0000      -0.376261       -10.2386 
 152   2.0000      -0.375402       -10.2152 
 153   2.0000      -0.374911       -10.2018 
 154   2.0000      -0.374712       -10.1964 
 155   2.0000      -0.373235       -10.1562 
 156   2.0000      -0.372404       -10.1336 
 157   2.0000      -0.370027       -10.0689 
 158   2.0000      -0.367848       -10.0097 
 159   2.0000      -0.365632        -9.9494 
 160   2.0000      -0.363009        -9.8780 
 161   2.0000      -0.361752        -9.8438 
 162   2.0000      -0.359108        -9.7718 
 163   2.0000      -0.358311        -9.7501 
 164   2.0000      -0.342319        -9.3150 
[...]
 11 C      6.0865     6.0000    -0.0865     3.8404     3.8404    -0.0000
 12 C      6.1742     6.0000    -0.1742     3.8404     3.8404    -0.0000
 13 C      6.0841     6.0000    -0.0841     3.6270     3.6270    -0.0000
 14 C      5.7320     6.0000     0.2680     3.4557     3.4557    -0.0000
 15 C      6.0901     6.0000    -0.0901     3.6747     3.6747    -0.0000
 16 C      6.1147     6.0000    -0.1147     3.6888     3.6888    -0.0000
 17 C      6.1637     6.0000    -0.1637     3.8245     3.8245    -0.0000
 18 C      6.1004     6.0000    -0.1004     3.8371     3.8371     0.0000
 19 C      6.1803     6.0000    -0.1803     3.8420     3.8420     0.0000
 20 C      6.0892     6.0000    -0.0892     3.6416     3.6416    -0.0000
 21 C      5.8022     6.0000     0.1978     3.4743     3.4743     0.0000
 22 C      6.0645     6.0000    -0.0645     3.6675     3.6675    -0.0000
 23 C      6.1579     6.0000    -0.1579     3.8240     3.8240    -0.0000
 24 C      6.0867     6.0000    -0.0867     3.8441     3.8441    -0.0000
 25 C      6.1776     6.0000    -0.1776     3.8609     3.8609    -0.0000
 26 C      6.1800     6.0000    -0.1800     3.8688     3.8688    -0.0000
 27 C      6.0607     6.0000    -0.0607     3.6243     3.6243     0.0000
 28 C      5.7188     6.0000     0.2812     3.4166     3.4166    -0.0000
 29 C      6.0871     6.0000    -0.0871     3.5642     3.5642    -0.0000
 30 C      6.1716     6.0000    -0.1716     3.8253     3.8253     0.0000
 31 C      6.1023     6.0000    -0.1023     3.8517     3.8517     0.0000
 32 C      6.1371     6.0000    -0.1371     3.8338     3.8338    -0.0000
 33 C      6.0787     6.0000    -0.0787     3.6676     3.6676     0.0000
 34 C      5.7064     6.0000     0.2936     3.4981     3.4981     0.0000
 35 C      6.1599     6.0000    -0.1599     3.6430     3.6430    -0.0000
 36 C      6.1848     6.0000    -0.1848     3.8253     3.8253    -0.0000
 37 C      6.0811     6.0000    -0.0811     3.8260     3.8260     0.0000
 38 C      6.0995     6.0000    -0.0995     3.8472     3.8472    -0.0000
 39 C      6.1450     6.0000    -0.1450     3.8344     3.8344     0.0000
 40 C      6.0804     6.0000    -0.0804     3.6381     3.6381     0.0000
 41 C      5.8131     6.0000     0.1869     3.5449     3.5449    -0.0000
 42 C      6.0890     6.0000    -0.0890     3.6241     3.6241    -0.0000
 43 C      6.1737     6.0000    -0.1737     3.8517     3.8517     0.0000
 44 C      6.0987     6.0000    -0.0987     3.8438     3.8438     0.0000
 45 C      6.1737     6.0000    -0.1737     3.8333     3.8333     0.0000
 46 C      5.9457     6.0000     0.0543     3.5462     3.5462     0.0000
 47 C      5.7938     6.0000     0.2062     3.6652     3.6652    -0.0000
 48 C      6.1670     6.0000    -0.1670     3.8237     3.8237    -0.0000
 49 C      6.0798     6.0000    -0.0798     3.7044     3.7044    -0.0000
 50 C      6.1687     6.0000    -0.1687     3.8253     3.8253     0.0000
 51 C      6.0744     6.0000    -0.0744     3.8137     3.8137    -0.0000
 52 C      6.1974     6.0000    -0.1974     3.9100     3.9100     0.0000
 53 C      6.0845     6.0000    -0.0845     3.6800     3.6800     0.0000
 54 C      6.1202     6.0000    -0.1202     3.7446     3.7446    -0.0000
 55 C      5.8234     6.0000     0.1766     3.4331     3.4331     0.0000
 56 C      6.0890     6.0000    -0.0890     3.6159     3.6159     0.0000
 57 C      6.1679     6.0000    -0.1679     3.8504     3.8504    -0.0000
 58 H      0.9310     1.0000     0.0690     0.9847     0.9847     0.0000
 59 H      0.9223     1.0000     0.0777     0.9980     0.9980     0.0000
 60 H      0.9292     1.0000     0.0708     1.0012     1.0012     0.0000
 61 H      0.9151     1.0000     0.0849     0.9942     0.9942    -0.0000
 62 H      0.9608     1.0000     0.0392     1.0890     1.0890    -0.0000
 63 H      0.9356     1.0000     0.0644     1.0282     1.0282    -0.0000
 64 H      0.9052     1.0000     0.0948     0.9905     0.9905    -0.0000
 65 H      0.9317     1.0000     0.0683     1.0024     1.0024    -0.0000
 66 H      0.9177     1.0000     0.0823     0.9945     0.9945    -0.0000
 67 H      0.9478     1.0000     0.0522     1.0575     1.0575    -0.0000
 68 H      0.9440     1.0000     0.0560     1.0570     1.0570    -0.0000
 69 H      0.9150     1.0000     0.0850     0.9928     0.9928     0.0000
 70 H      0.9215     1.0000     0.0785     0.9984     0.9984    -0.0000
 71 H      0.9096     1.0000     0.0904     0.9940     0.9940     0.0000
 72 H      0.9284     1.0000     0.0716     1.0315     1.0315     0.0000
 73 H      0.9358     1.0000     0.0642     1.0616     1.0616     0.0000
 74 H      0.9129     1.0000     0.0871     0.9963     0.9963     0.0000
 75 H      0.9249     1.0000     0.0751     0.9989     0.9989    -0.0000
 76 H      0.9106     1.0000     0.0894     0.9928     0.9928    -0.0000
 77 H      0.9271     1.0000     0.0729     1.0461     1.0461     0.0000
 78 H      0.9290     1.0000     0.0710     1.0332     1.0332     0.0000
 79 H      0.9454     1.0000     0.0546     1.0629     1.0629    -0.0000
 80 H      0.9062     1.0000     0.0938     0.9939     0.9939     0.0000
 81 H      0.9222     1.0000     0.0778     0.9985     0.9985     0.0000
 82 H      0.9124     1.0000     0.0876     0.9929     0.9929    -0.0000
 83 H      0.9513     1.0000     0.0487     1.0488     1.0488    -0.0000
 84 H      0.9103     1.0000     0.0897     0.9910     0.9910     0.0000
 85 H      0.9242     1.0000     0.0758     0.9984     0.9984    -0.0000
 86 H      0.9045     1.0000     0.0955     0.9924     0.9924     0.0000
 87 H      0.9214     1.0000     0.0786     1.0839     1.0839    -0.0000
 88 H      0.9223     1.0000     0.0777     0.9961     0.9961    -0.0000
 89 H      0.9499     1.0000     0.0501     1.0537     1.0537    -0.0000
 90 H      0.9142     1.0000     0.0858     0.9942     0.9942    -0.0000
 91 H      0.9147     1.0000     0.0853     0.9929     0.9929     0.0000
 92 H      0.9270     1.0000     0.0730     0.9999     0.9999    -0.0000
 93 H      0.9393     1.0000     0.0607     1.0307     1.0307     0.0000
 94 H      0.9557     1.0000     0.0443     1.0576     1.0576    -0.0000
 95 H      0.9165     1.0000     0.0835     0.9937     0.9937    -0.0000
 96 H      0.9311     1.0000     0.0689     1.0026     1.0026     0.0000
 97 H      0.9038     1.0000     0.0962     0.9903     0.9903     0.0000
 98 H      0.9319     1.0000     0.0681     1.0322     1.0322    -0.0000
 99 H      0.9369     1.0000     0.0631     1.0727     1.0727     0.0000
100 H      0.9152     1.0000     0.0848     0.9971     0.9971    -0.0000
101 H      0.9280     1.0000     0.0720     0.9997     0.9997     0.0000
102 H      0.9118     1.0000     0.0882     0.9923     0.9923    -0.0000
103 H      0.9411     1.0000     0.0589     1.1012     1.1012    -0.0000
104 H      0.8259     1.0000     0.1741     1.0427     1.0427    -0.0000
105 H      0.9739     1.0000     0.0261     1.0671     1.0671    -0.0000
106 H      0.9761     1.0000     0.0239     1.1311     1.1311     0.0000

  Mayer bond orders larger than 0.100000
B(  0-Ru,  1-P ) :   1.0627 B(  0-Ru,  2-P ) :   0.9033 B(  0-Ru,  3-P ) :   0.8623 
B(  0-Ru,103-H ) :   0.5583 B(  0-Ru,104-H ) :   0.5227 B(  0-Ru,105-H ) :   0.8201 
B(  0-Ru,106-H ) :   0.6969 B(  1-P ,  2-P ) :   0.1040 B(  1-P ,  4-C ) :   0.8606 
B(  1-P ,  8-C ) :   0.8611 B(  1-P , 55-C ) :   0.8627 B(  1-P ,106-H ) :   0.1492 
B(  2-P ,  3-P ) :   0.1755 B(  2-P , 14-C ) :   0.9495 B(  2-P , 21-C ) :   0.8076 
B(  2-P , 28-C ) :   0.9745 B(  2-P ,106-H ) :   0.1150 B(  3-P , 34-C ) :   1.0142 
B(  3-P , 41-C ) :   0.9053 B(  3-P , 47-C ) :   0.9816 B(  4-C , 15-C ) :   1.1198 
B(  4-C , 54-C ) :   1.1931 B(  5-C ,  6-C ) :   1.3354 B(  5-C , 57-C ) :   1.3541 
B(  5-C , 75-H ) :   0.9385 B(  6-C ,  7-C ) :   1.3260 B(  6-C , 74-H ) :   0.9343 
B(  7-C , 55-C ) :   1.1792 B(  7-C , 73-H ) :   0.9312 B(  8-C ,  9-C ) :   1.1831 
B(  8-C , 13-C ) :   1.1797 B(  9-C , 10-C ) :   1.3154 B(  9-C , 58-H ) :   0.9345 
B( 10-C , 11-C ) :   1.3347 B( 10-C , 59-H ) :   0.9408 B( 11-C , 12-C ) :   1.3577 
B( 11-C , 60-H ) :   0.9406 B( 12-C , 13-C ) :   1.3313 B( 12-C , 61-H ) :   0.9351 
B( 13-C , 62-H ) :   0.9350 B( 14-C , 16-C ) :   1.1697 B( 14-C , 20-C ) :   1.1288 
B( 15-C , 26-C ) :   1.3592 B( 15-C , 79-H ) :   0.9258 B( 16-C , 17-C ) :   1.3506 
B( 16-C , 87-H ) :   0.9302 B( 17-C , 18-C ) :   1.3425 B( 17-C , 86-H ) :   0.9320 
B( 18-C , 19-C ) :   1.3460 B( 18-C , 85-H ) :   0.9385 B( 19-C , 20-C ) :   1.3328 
B( 19-C , 84-H ) :   0.9353 B( 20-C , 83-H ) :   0.9473 B( 21-C , 22-C ) :   1.1821 
B( 21-C , 27-C ) :   1.1669 B( 22-C , 23-C ) :   1.3329 B( 22-C , 88-H ) :   0.9369 
B( 23-C , 24-C ) :   1.3393 B( 23-C , 91-H ) :   0.9356 B( 24-C , 25-C ) :   1.3622 
B( 24-C , 92-H ) :   0.9381 B( 25-C , 27-C ) :   1.3285 B( 25-C , 90-H ) :   0.9380 
B( 26-C , 37-C ) :   1.3482 B( 26-C , 80-H ) :   0.9347 B( 27-C , 89-H ) :   0.9371 
B( 28-C , 29-C ) :   1.0716 B( 28-C , 33-C ) :   1.1248 B( 29-C , 30-C ) :   1.3210 
B( 29-C , 94-H ) :   0.9437 B( 30-C , 31-C ) :   1.3455 B( 30-C , 95-H ) :   0.9360 
B( 31-C , 32-C ) :   1.3378 B( 31-C , 96-H ) :   0.9406 B( 32-C , 33-C ) :   1.3278 
B( 32-C , 97-H ) :   0.9270 B( 33-C , 93-H ) :   0.9380 B( 34-C , 35-C ) :   1.0834 
B( 34-C , 40-C ) :   1.1049 B( 35-C , 36-C ) :   1.3373 B( 35-C , 67-H ) :   0.9412 
B( 36-C , 38-C ) :   1.3410 B( 36-C , 66-H ) :   0.9358 B( 37-C , 48-C ) :   1.3331 
B( 37-C , 81-H ) :   0.9357 B( 38-C , 39-C ) :   1.3409 B( 38-C , 65-H ) :   0.9408 
B( 39-C , 40-C ) :   1.3178 B( 39-C , 64-H ) :   0.9312 B( 40-C , 63-H ) :   0.9460 
B( 41-C , 42-C ) :   1.1275 B( 41-C , 46-C ) :   1.2099 B( 42-C , 43-C ) :   1.3277 
B( 42-C , 98-H ) :   0.9390 B( 43-C , 44-C ) :   1.3541 B( 43-C ,102-H ) :   0.9334 
B( 44-C , 45-C ) :   1.3427 B( 44-C ,101-H ) :   0.9383 B( 45-C , 46-C ) :   1.3273 
B( 45-C ,100-H ) :   0.9319 B( 46-C , 99-H ) :   0.8913 B( 47-C , 49-C ) :   1.2060 
B( 47-C , 53-C ) :   1.0990 B( 48-C , 54-C ) :   1.3448 B( 48-C , 82-H ) :   0.9366 
B( 49-C , 50-C ) :   1.3395 B( 49-C , 68-H ) :   0.9298 B( 50-C , 51-C ) :   1.3293 
B( 50-C , 69-H ) :   0.9352 B( 51-C , 52-C ) :   1.3596 B( 51-C , 70-H ) :   0.9369 
B( 52-C , 53-C ) :   1.3619 B( 52-C , 71-H ) :   0.9318 B( 53-C , 72-H ) :   0.9266 
B( 54-C , 78-H ) :   0.9291 B( 55-C , 56-C ) :   1.1206 B( 56-C , 57-C ) :   1.3352 
B( 56-C , 77-H ) :   0.9361 B( 57-C , 76-H ) :   0.9336 B(103-H ,104-H ) :   0.4569 


-------
TIMINGS
-------

Total SCF time: 0 days 4 hours 11 min 51 sec 

Total time                  ....   15111.689 sec
Sum of individual times     ....   14993.887 sec  ( 99.2%)

SCF preparation             ....       3.847 sec  (  0.0%)
Fock matrix formation       ....   13014.775 sec  ( 86.1%)
  Startup                   ....       4.110 sec  (  0.0% of F)
  Split-RI-J                ....    6094.683 sec  ( 46.8% of F)
  XC integration            ....    7103.147 sec  ( 54.6% of F)
    XC Preparation          ....       0.000 sec  (  0.0% of XC)
    Basis function eval.    ....     908.451 sec  ( 12.8% of XC)
    Density eval.           ....    3391.490 sec  ( 47.7% of XC)
    XC-Functional eval.     ....      18.865 sec  (  0.3% of XC)
    XC-Potential eval.      ....    2752.843 sec  ( 38.8% of XC)
Diagonalization             ....       0.000 sec  (  0.0%)
Density matrix formation    ....      33.614 sec  (  0.2%)
Total Energy calculation    ....       9.884 sec  (  0.1%)
Population analysis         ....      24.164 sec  (  0.2%)
Orbital Transformation      ....     165.212 sec  (  1.1%)
Orbital Orthonormalization  ....       0.000 sec  (  0.0%)
DIIS solution               ....    1120.696 sec  (  7.4%)
SOSCF solution              ....     621.695 sec  (  4.1%)
Finished LeanSCF after 15112.1 sec

Maximum memory used throughout the entire LEANSCF-calculation: 2779.3 MB

-------------------------   --------------------
FINAL SINGLE POINT ENERGY     -3207.452133253299
-------------------------   --------------------


------------------------------------------------------------------------------
                              ORCA PROPERTY CALCULATIONS
------------------------------------------------------------------------------

GBWName                                 ... 1b_def2qzvp.gbw
Number of atoms                         ...    107
Number of basis functions               ...   4830
Max core memory                         ...   4096 MB

Electric properties:
Dipole moment                           ... YES
Quadrupole moment                       ...  NO
Static polarizability (Dipole/Dipole)   ...  NO
Static polarizability (Dipole/Quad.)    ...  NO
Static polarizability (Quad./Quad.)     ...  NO
Static polarizability (Velocity)        ...  NO
Static hyperpolarizability              ...  NO

Atomic electric properties:
Dipole moment                           ...  NO
Quadrupole moment                       ...  NO
Static polarizability                   ...  NO

Choice of electric origin               ... Center of mass
Position of electric origin             ...     0.000239     0.014460     0.008559

General magnetic properties:
Magnetizability                         ...  NO

EPR properties:
g-Tensor (aka g-matrix)                 ...  NO
Zero-Field splitting spin-orbit         ...  NO
Zero-field splitting spin-spin          ...  NO
Hyperfine couplings                     ...  NO (   0 nuclei)
Quadrupole couplings                    ...  NO (   0 nuclei)
Contact density                         ...  NO (   0 nuclei)

NMR properties:
Chemical shifts                         ...  NO (   0 nuclei)
Spin-rotation constants                 ...  NO (   0 nuclei)
Spin-spin couplings                     ...  NO (   0 nuclei,    0 pairs)

Choice of magnetic origin               ... GIAO
Position of magnetic origin             ...     0.000000     0.000000     0.000000

Properties with geometric perturbations:
SCF Hessian                             ...  NO
IR spectrum                             ...  NO
VCD spectrum                            ...  NO
X-ray spectroscopy properties:
SCF XES/XAS/RIXS spectra                ...  NO

SCF SOC stabilization energy            ...  NO
Diagonal Born-Oppenheimer correction    ...  NO

-------------
DIPOLE MOMENT
-------------

Method             : SCF
Type of density    : Electron Density
Multiplicity       :   1
Irrep              :   0
Energy             : -3207.4521332532985980 Eh
Basis              : AO
                                X                 Y                 Z
Electronic contribution:      0.761223978      30.855747922      19.619975008
Nuclear contribution   :     -0.696993355     -31.360202236     -19.581609678
                        -----------------------------------------
Total Dipole Moment    :      0.064230622      -0.504454314       0.038365330
                        -----------------------------------------
Magnitude (a.u.)       :      0.509972182
Magnitude (Debye)      :      1.296246273



--------------------
Rotational spectrum 
--------------------
 
Rotational constants in cm-1:             0.001678             0.001413             0.001159 
Rotational constants in MHz :            50.290228            42.367262            34.746313 

Dipole components along the rotational axes: 
x,y,z [a.u.] :     0.065442    -0.504246     0.039051 
x,y,z [Debye]:     0.166340    -1.281691     0.099261 

 

Dipole moment calculation done in   0.8 sec 

Maximum memory used throughout the entire PROP-calculation: 1208.7 MB

--------------------------------
SUGGESTED CITATIONS FOR THIS RUN
--------------------------------

Below you find a list of papers that are relevant to this ORCA run
We neither can nor want to force you to cite these papers, but we appreciate if you do
You receive ORCA, which is the product of decades of hard work by many enthusiastic individuals, for free
The only thing we kindly ask in return is that you cite our papers,
We deeply appreciate it, if you show your appreciation for ORCA by not just citing the generic ORCA reference.

Please note that relegating all ORCA citations to the supporting information does *not* help us.
SI sections are not indexed - citations you put there will not count into any citation statistics
But we need these citations in order to attract the funding resources that allow us to do what we are doing

Therefore, if you are a happy ORCA user, please consider citing a few of the papers listed below in the main body of your paper

In addition to the list printed below, the program has created the file 1b_def2qzvp.bibtex that contains the list in bibtex format
You can import this file easily into all common literature databanks and citation aid programs

It goes without saying that in many instances, there are alternative algorithms to achieve similar
results as the ones you have gotten from ORCA. It is, of course, also the case that in some instances
ORCA just re-implements algorithms worked out by others. We are fully aware of that and we are also
fully appreciative of our colleagues work. Hence this citation list should not be read as indicating
that the listed papers, which are focused on our own work, are the only ones worth citing. It simply
meant to make it easier for users to cite ORCA specific papers. It is not a substitute for doing your
own literature research and citing the relevant literature in a scientifically appropriate manner.

List of essential papers. We consider these as the minimum necessary citations

  1. Neese, F.
     Software update: the ORCA program system, version 6.0
     WIRES Comput. Molec. Sci. 2025 15(1), e70019
     doi.org/10.1002/wcms.70019

List of papers to cite with high priority. The work reported in these papers was absolutely
necessary for this run to complete.
Our perspective: the developers of density functionals and basis sets usually get cited in chemistry papers
Good! But without the algorithms to do something with them, the functionals or basis sets would not do anything.
Hence, in our opinion, the algorithm design and method developments papers are equally worthy of getting cited

  1. Neese, F.
     An improvement of the resolution of the identity approximation for the formation of the Coulomb matrix
     J. Comp. Chem. 2003 24(14), 1740-1747
     doi.org/10.1002/jcc.10318
  2. Neese, F.
     The SHARK Integral Generation and Digestion System
     J. Comp. Chem. 2022 44(3), 381
     doi.org/10.1002/jcc.26942

List of suggested additional citations. These are papers that are important in the 'surrounding' of 
of this run, or papers that preceded the highly important papers. If you like your results we are grateful for a citation.

  1. Neese, F.
     The ORCA program system
     WIRES Comput. Molec. Sci. 2012 2(1), 73-78
     doi.org/10.1002/wcms.81
  2. Neese, F.
     Software update: the ORCA program system, version 4.0
     WIRES Comput. Molec. Sci. 2018 8(1), 1-6
     doi.org/10.1002/wcms.1327
  3. Neese, F.; Wennmohs, F.; Becker, U.; Riplinger, C.
     The ORCA quantum chemistry program package
     J. Chem. Phys. 2020 152(22), 224108
     doi.org/10.1063/5.0004608
  4. Neese, F.
     Software update: The ORCA program system—Version 5.0
     WIRES Comput. Molec. Sci. 2022 12(1), e1606
     doi.org/10.1002/wcms.1606

List of optional additional citations

  1. Neese, F.
     Approximate second-order SCF convergence for spin unrestricted wavefunctions
     Chem. Phys. Lett. 2000 325(1-3), 93-98
     doi.org/10.1016/s0009-2614(00)00662-x

Timings for individual modules:

Sum of individual times          ...    15484.524 sec (= 258.075 min)
Startup calculation              ...      125.427 sec (=   2.090 min)   0.8 %
SCF iterations                   ...    15357.265 sec (= 255.954 min)  99.2 %
Property calculations            ...        1.832 sec (=   0.031 min)   0.0 %
                             ****ORCA TERMINATED NORMALLY****
TOTAL RUN TIME: 0 days 4 hours 18 minutes 4 seconds 936 msec
