
                                 *****************
                                 * O   R   C   A *
                                 *****************

                                            #,                                       
                                            ###                                      
                                            ####                                     
                                            #####                                    
                                            ######                                   
                                           ########,                                 
                                     ,,################,,,,,                         
                               ,,#################################,,                 
                          ,,##########################################,,             
                       ,#########################################, ''#####,          
                    ,#############################################,,   '####,        
                  ,##################################################,,,,####,       
                ,###########''''           ''''###############################       
              ,#####''   ,,,,##########,,,,          '''####'''          '####       
            ,##' ,,,,###########################,,,                        '##       
           ' ,,###''''                  '''############,,,                           
         ,,##''                                '''############,,,,        ,,,,,,###''
      ,#''                                            '''#######################'''  
     '                                                          ''''####''''         
             ,#######,   #######,   ,#######,      ##                                
            ,#'     '#,  ##    ##  ,#'     '#,    #''#        ,####,    ,#,          
            ##       ##  ##   ,#'  ##            #'  '#       #'       ,# #          
            ##       ##  #######   ##           ,######,      #####,      #          
            '#,     ,#'  ##    ##  '#,     ,#' ,#      #,     #,   #      #          
             '#######'   ##     ##  '#######'  #'      '#     '####' #    #          



                #########################################################
                #                        -***-                          #
                #          Department of theory and spectroscopy        #
                #                                                       #
                #                      Frank Neese                      #
                #                                                       #
                #     Directorship, Architecture, Infrastructure        #
                #                    SHARK, DRIVERS                     #
                #        Core code/Algorithms in most modules           #
                #                                                       #
                #        Max Planck Institute fuer Kohlenforschung      #
                #                Kaiser Wilhelm Platz 1                 #
                #                 D-45470 Muelheim/Ruhr                 #
                #                      Germany                          #
                #                                                       #
                #                  All rights reserved                  #
                #                        -***-                          #
                #########################################################


                         Program Version 6.1.1  -  RELEASE   -
                                (GIT: $487d211c$)
                          ($2025-11-21 10:33:24 +0100$)


 With contributions from (in alphabetic order):
[Max-Planck-Institut fuer Kohlenforschung]                               
  Daniel Aravena         : Magnetic Suceptibility                        
  Michael Atanasov       : Ab Initio Ligand Field Theory (pilot matlab implementation)
  Alexander A. Auer      : GIAO ZORA, VPT2 properties, NMR spectrum      
  Ute Becker             : All parallelization in ORCA, NUMFREQ, NUMCALC 
  Giovanni Bistoni       : ED, misc. LED, open-shell LED, HFLD           
  Dmytro Bykov           : pre 5.0 version of the SCF Hessian            
  Marcos Casanova-Páez   : Triplet and SCS-CIS(D). UHF-(DLPNO)-IP/EA/STEOM-CCSD. UHF-CVS-IP/STEOM-CCSD   
  Vijay G. Chilkuri      : MRCI spin determinant printing, contributions to CSF-ICE 
  Pauline Colinet        : FMM embedding                                 
  Dipayan Datta          : RHF DLPNO-CCSD density                        
  Achintya Kumar Dutta   : EOM-CC, STEOM-CC                              
  Nicolas Foglia         : Exact transition moments, OPA infrastructure, MCD improvements    
  Dmitry Ganyushin       : Spin-Orbit,Spin-Spin,Magnetic field MRCI      
  Miquel Garcia-Rates    : C-PCM and meta-GGA Hessian, CCSD/C-PCM, Gaussian charge scheme 
  Tiago L. C. Gouveia    : GS-ROHF, GS-ROCIS                             
  Yang Guo               : DLPNO-NEVPT2, F12-NEVPT2, CIM, IAO-localization        
  Andreas Hansen         : Spin unrestricted coupled pair/coupled cluster methods 
  Ingolf Harden          : AUTO-CI MPn and infrastructure                
  Benjamin Helmich-Paris : MC-RPA, TRAH-(SCF,CASSCF), AVAS, COSX integrals, SCF dyn. polar., MC-PDFT, srDFT 
  Lee Huntington         : MR-EOM, pCC                                   
  Robert Izsak           : Overlap fitted RIJCOSX, COSX-SCS-MP3, EOM     
  Riya Kayal             : Wick's Theorem for AUTO-CI, AUTO-CI UHF-CCSDT 
  Emily Kempfer          : AUTO-CI RHF CISDT and CCSDT, approximate NEVPT4
  Christian Kollmar      : KDIIS, OOCD, Brueckner-CCSD(T), CCSD density, CASPT2, CASPT2-K, improved NEVPT2 
  Axel Koslowski         : Symmetry handling                             
  Simone Kossmann        : meta-GGA functionals, TD-DFT gradient, OOMP2, (MP2 Hessian; deprecated post 5.0) 
  Lucas Lang             : DCDCAS, Hyperfine gauge corrections, ICE-SOC+SSC
  Marvin Lechner         : AUTO-CI (C++ implementation), FIC-MRCC        
  Spencer Leger          : CASSCF response                               
  Dagmar Lenk            : GEPOL surface, SMD, ORCA-2-JSON               
  Dimitrios Liakos       : Extrapolation schemes; Compound Job, Property file
  Dimitrios Manganas     : Further ROCIS development; embedding schemes. LFT, Crystal Embedding 
  Dimitrios Pantazis     : SARC Basis sets                               
  Anastasios Papadopoulos: AUTO-CI, single reference methods and gradients 
  Taras Petrenko         : pre 6.0 DFT Hessian and TD-DFT gradient,  ECA, NRVS 
  Petra Pikulova         : Analytic Raman intensities                    
  Peter Pinski           : DLPNO-MP2, DLPNO-MP2 Gradient                 
  Shashank Vittal Rao    : ES-AILFT, MagRelax                            
  Christoph Reimann      : Effective Core Potentials                     
  Marius Retegan         : Local ZFS, SOC                                
  Christoph Riplinger    : Optimizer, TS searches, QM/MM, DLPNO-CCSD(T), (RO)-DLPNO pert. Triples 
  Michael Roemelt        : Original ROCIS implementation, recursive CI coupling coefficients
  Masaaki Saitow         : Open-shell DLPNO-CCSD energy and density      
  Barbara Sandhoefer     : DKH picture change effects                    
  Yorick L. A. Schmerwitz: GMF and freeze-and-release deltaSCF, NEB S-IDPP initial path                    
  Kantharuban Sivalingam : CASSCF convergence/infrastructure, NEVPT2, NEVPT3, NEVPT4(SD), FIC-MRCI and CEPA variants
  Bernardo de Souza      : ESD, SOC TD-DFT                               
  Georgi L. Stoychev     : AutoAux, RI-MP2 NMR, DLPNO-MP2 response, X2C  
  Van Anh Tran           : RI-MP2 g-tensors                              
  Willem Van den Heuvel  : Paramagnetic NMR                              
  Zikuan Wang            : NOTCH, Electric field optimization            
  Frank Wennmohs         : Technical directorship and infrastructure     
  Hang Xu                : AUTO-CI-Response properties                   
                                                                         
[FACCTs GmbH]                                                            
  Markus Bursch, Nicolas Foglia, Miquel Garcia-Rates, Ingolf Harden, Hagen Neugebauer, Anastasios Papadopoulos, 
  Christoph Riplinger, Bernardo de Souza, Georgi L. Stoychev                                                    
                                                                 
  APM, various basis sets, CI-OPT, improved COSX, DLPNO-Multilevel,           
  DOCKER, DRACO, updates on ESD, Fragmentator, GOAT, IRC, LR-CPCM, L-BFGS, MBIS, meta-GGA TD-DFT gradient, ML-optimized integration grids, 
  MM, NACMEs, nearIR, NEB, NEB-TS, NL-DFT gradient (VV10), 2- and 3-layer-ONIOM, interface openCOSMO-RS, QMMM,   
  Crystal-QMMM, RESP, rigid body optimization, SF, symmetry and pop. for TD-DFT, various functionals, SOLVATOR                                   
                                                                         
[Other institutions]                                                     
  V. Asgeirsson          : NEB                                           
  Christoph Bannwarth    : sTDA-DFT, sTD-DFT, PBEh-3c, B97-3c, D3        
  Giovanni Bistoni       : ETS/NOCV, ADLD/ADEX, COVALED                  
  Martin Brehm           : Molecular dynamics                            
  Ronald Cardenas        : ETS/NOCV                                      
  Martina Colucci        : COVALED                                       
  Sebastian Ehlert       : rSCAN, r2SCAN, r2SCAN-3c, D4, dhf basis sets  
  Marvin Friede          : D4 for Fr, Ra, Ac-Lr                          
  Lars Goerigk           : TD-DFT with DH, B97 family of functionals     
  Stefan Grimme          : VdW corrections, initial TS optimization, DFT functionals, gCP, sTDA/sTD-DF 
  Waldemar Hujo          : DFT-NL                                        
  H. Jonsson             : NEB                                           
  Holger Kruse           : gCP                                           
  Marcel Mueller         : wB97X-3c, vDZP basis set                      
  Hagen Neugebauer       : wr2SCAN, Native XTB                           
  Gianluca Regni         : ADLD/ADEX                                     
  Tobias Risthaus        : pre 6.0 range-separated hybrid DFT and stability analysis
  Lukas Wittmann         : regularized MP2, r2SCAN double-hybrids, wr2SCAN        
                                                                         
We gratefully acknowledge several colleagues who have allowed us to      
interface, adapt or use parts of their codes:                            
  Ed Valeev, F. Pavosevic, A. Kumar             : LibInt (2-el integral package), F12 methods 
  Garnet Chan, S. Sharma, J. Yang, R. Olivares  : DMRG                   
  Ulf Ekstrom                                   : XCFun DFT Library      
  Mihaly Kallay                                 : mrcc  (arbitrary order and MRCC methods)
  Frank Weinhold                                : gennbo (NPA and NBO analysis)           
  Simon Mueller                                 : openCOSMO-RS                            
  Christopher J. Cramer and Donald G. Truhlar   : smd solvation model                     
  S Lehtola, MJT Oliveira, MAL Marques          : LibXC Library                           
  Liviu Ungur et al                             : ANISO software                          


 Your calculation uses the libint2 library for the computation of 2-el integrals
 For citations please refer to: http://libint.valeyev.net

 Your ORCA version has been built with support for libXC version: 7.0.0
 For citations please refer to: https://libxc.gitlab.io

 This ORCA versions uses:
   CBLAS   interface :  Fast vector & matrix operations
   LAPACKE interface :  Fast linear algebra routines
   SCALAPACK package :  Parallel linear algebra routines
   Shared memory     :  Shared parallel matrices
   BLAS/LAPACK       :  OpenBLAS 0.3.29  USE64BITINT DYNAMIC_ARCH NO_AFFINITY Haswell SINGLE_THREADED
        Core in use  :  Haswell
   Copyright (c) 2011-2014, The OpenBLAS Project


  ***********************************
  * Starting time: Thu Jul  9 11:49:17 2026
  * Host name:     ylva-work-pc
  * Process ID:    119148
  * Working dir.:  /home/ylvao/work/projects/bsse
  ***********************************

Warning: RI is on but no J-basis has been assigned. Assigning Def2/J (nothing to worry about!)
================================================================================

cite the ECPs for Ru [Def2-ECP] as follows:
Ce-Yb(ecp-28): M. Dolg, H. Stoll, H.Preuss, J. Chem. Phys., 1989, 90, 1730-1734.
Y-Cd(ecp-28), Hf-Hg(ecp-46): D. Andrae,U. Haeussermann, M. Dolg, H. Stoll, H. Preuss, Theor. Chim. Acta, 1990, 77, 123-141.
In-Sb(ecp-28), Tl-Bi(ecp-46): B. Metz, H. Stoll, M. Dolg, J. Chem. Phys., 2000, 113, 2563-2569.
Te-Xe(ecp-28), Po-Rn(ecp-46): K. A. Peterson, D. Figgen, E. Goll, H. Stoll, M. Dolg, J. Chem. Phys., 2003, 119, 11113-11123.
Rb(ecp-28), Cs(ecp-46): T. Leininger, A. Nicklass, W. Kuechle, H. Stoll, M. Dolg, A. Bergner, Chem. Phys. Lett., 1996, 255, 274-280.
Sr(ecp-28), Ba(ecp-46): M. Kaupp, P. V. Schleyer, H. Stoll and H. Preuss, J. Chem. Phys., 1991, 94, 1360-1366.
La(ecp-46): M. Dolg, H. Stoll, A. Savin, H. Preuss, Theor. Chim. Acta, 1989, 75, 173-194.
Lu(ecp-28): X. Cao, M. Dolg, J. Chem. Phys., 2001, 115, 7348-7355.

ECP parameters for Ru [Def2-ECP] have been obtained from:
TURBOMOLE (7.0.2)

----- Orbital basis set information -----
Your calculation utilizes the basis: def2-SVP
   F. Weigend and R. Ahlrichs, Phys. Chem. Chem. Phys. 7, 3297 (2005).

----- AuxJ basis set information -----
Your calculation utilizes the auxiliary basis: def2/J
   H-Rn: F. Weigend, Phys. Chem. Chem. Phys. 8, 1057 (2006).
   Fr-Lr: K. Eichkorn, F. Weigend, O. Treutler, R. Ahlrichs; Theor. Chem. Acc. 97, 119 (1997).

================================================================================
                                        WARNINGS
                       Please study these warnings very carefully!
================================================================================


================================================================================
                                       INPUT FILE
================================================================================
NAME = 1b_def2svp.inp
|  1> ! BP86 def2-SVP VeryTightSCF defgrid3
|  2> 
|  3> *xyz 0 1
|  4> Ru 0.011212 0.474077 0.299876
|  5> P 2.251692 1.026126 0.082748
|  6> P -2.232460 1.062489 0.093402
|  7> P -0.019697 -1.895845 0.022086
|  8> C 3.324518 0.209394 -1.208563
|  9> C 5.023165 0.792715 3.871623
| 10> C 4.018881 -0.165054 3.654564
| 11> C 3.193687 -0.082633 2.521046
| 12> C 2.514778 2.815383 -0.412278
| 13> C 2.013700 3.837884 0.429778
| 14> C 2.182077 5.189035 0.095820
| 15> C 2.840568 5.546076 -1.095534
| 16> C 3.334127 4.542855 -1.941925
| 17> C 3.181421 3.185711 -1.599839
| 18> C -2.509114 2.756472 -0.663780
| 19> C 2.719976 -0.239083 -2.405189
| 20> C -1.497599 3.405070 -1.403664
| 21> C -1.736671 4.658402 -1.996099
| 22> C -2.985166 5.282568 -1.852442
| 23> C -4.000333 4.647015 -1.115491
| 24> C -3.766308 3.394019 -0.529452
| 25> C -3.209403 1.307966 1.672754
| 26> C -2.559308 1.963568 2.746132
| 27> C -3.230275 2.202408 3.954766
| 28> C -4.563536 1.786815 4.116991
| 29> C -5.222310 1.142213 3.058424
| 30> C 3.492717 -0.829685 -3.419444
| 31> C -4.554913 0.908552 1.842571
| 32> C -3.437288 0.097066 -0.960194
| 33> C -3.814707 0.556463 -2.244433
| 34> C -4.658881 -0.214516 -3.061572
| 35> C -5.148796 -1.450020 -2.608977
| 36> C -4.780593 -1.917288 -1.336690
| 37> C -3.927488 -1.157210 -0.520622
| 38> C 1.447383 -2.830485 0.715371
| 39> C 1.400920 -3.405847 2.007015
| 40> C 2.538604 -4.020263 2.558228
| 41> C 4.878988 -0.986327 -3.248682
| 42> C 3.736478 -4.077726 1.827796
| 43> C 3.793348 -3.511115 0.543304
| 44> C 2.662807 -2.887337 -0.008699
| 45> C -0.147778 -2.651716 -1.678827
| 46> C 0.387796 -3.924490 -1.994681
| 47> C 0.235469 -4.464267 -3.282653
| 48> C -0.455271 -3.746430 -4.273385
| 49> C -0.992784 -2.484745 -3.970631
| 50> C -0.838746 -1.939036 -2.685026
| 51> C -1.363238 -2.846716 0.927502
| 52> C 5.489566 -0.547093 -2.061273
| 53> C -1.813864 -4.115289 0.497486
| 54> C -2.794868 -4.812873 1.221137
| 55> C -3.337699 -4.260046 2.393994
| 56> C -2.899666 -3.000035 2.833373
| 57> C -1.925547 -2.296424 2.102572
| 58> C 4.719748 0.049910 -1.048583
| 59> C 3.365628 0.959843 1.581927
| 60> C 4.384631 1.916468 1.807540
| 61> C 5.204679 1.832721 2.945028
| 62> H 1.478434 3.565194 1.344855
| 63> H 1.790200 5.964427 0.761921
| 64> H 2.964533 6.601143 -1.359548
| 65> H 3.847438 4.809768 -2.871561
| 66> H 3.581830 2.412554 -2.260335
| 67> H 2.723935 -2.436865 -1.002748
| 68> H 4.722722 -3.541461 -0.033680
| 69> H 4.620448 -4.560799 2.255756
| 70> H 2.480548 -4.466364 3.556688
| 71> H 0.466509 -3.386438 2.575247
| 72> H -1.408558 -4.548181 -0.421318
| 73> H -3.136061 -5.790767 0.865758
| 74> H -4.102429 -4.804509 2.956999
| 75> H -3.326214 -2.549504 3.735278
| 76> H -1.622129 -1.295345 2.424531
| 77> H 2.414940 -0.834349 2.359121
| 78> H 3.873509 -0.983948 4.366037
| 79> H 5.660525 0.730046 4.759435
| 80> H 5.983946 2.584509 3.107590
| 81> H 4.522816 2.735721 1.096213
| 82> H 5.199438 0.385451 -0.124662
| 83> H 1.636263 -0.137665 -2.520720
| 84> H 3.005290 -1.178948 -4.335008
| 85> H 5.479945 -1.453447 -4.035442
| 86> H 6.568676 -0.668734 -1.920745
| 87> H -4.558472 2.908356 0.047984
| 88> H -4.975867 5.128954 -0.993590
| 89> H -3.167490 6.261935 -2.306659
| 90> H -0.934747 5.147296 -2.558413
| 91> H -0.518333 2.927554 -1.496836
| 92> H -1.520505 2.288124 2.621537
| 93> H -5.076754 0.403883 1.024572
| 94> H -6.262604 0.820090 3.173599
| 95> H -2.710648 2.714716 4.771232
| 96> H -5.085345 1.968254 5.061957
| 97> H -3.630548 -1.543367 0.457193
| 98> H -3.456222 1.526928 -2.597742
| 99> H -4.941209 0.160475 -4.050960
|100> H -5.810526 -2.046971 -3.244432
|101> H -5.146271 -2.883191 -0.975016
|102> H 0.944763 -4.480644 -1.234912
|103> H -1.251091 -0.952394 -2.453526
|104> H -1.538567 -1.919723 -4.732965
|105> H -0.572710 -4.168991 -5.276519
|106> H 0.661357 -5.446668 -3.511798
|107> H 0.101914 -0.079623 1.963299
|108> H 0.041254 0.814939 1.997969
|109> H 0.003903 2.086740 0.388775
|110> H 0.010735 0.723855 -1.311151
|111> **                         ****END OF INPUT****
================================================================================

                       ****************************
                       * Single Point Calculation *
                       ****************************

---------------------------------
CARTESIAN COORDINATES (ANGSTROEM)
---------------------------------
  Ru     0.011212    0.474077    0.299876
  P      2.251692    1.026126    0.082748
  P     -2.232460    1.062489    0.093402
  P     -0.019697   -1.895845    0.022086
  C      3.324518    0.209394   -1.208563
  C      5.023165    0.792715    3.871623
  C      4.018881   -0.165054    3.654564
  C      3.193687   -0.082633    2.521046
  C      2.514778    2.815383   -0.412278
  C      2.013700    3.837884    0.429778
  C      2.182077    5.189035    0.095820
  C      2.840568    5.546076   -1.095534
  C      3.334127    4.542855   -1.941925
  C      3.181421    3.185711   -1.599839
  C     -2.509114    2.756472   -0.663780
  C      2.719976   -0.239083   -2.405189
  C     -1.497599    3.405070   -1.403664
  C     -1.736671    4.658402   -1.996099
  C     -2.985166    5.282568   -1.852442
  C     -4.000333    4.647015   -1.115491
  C     -3.766308    3.394019   -0.529452
  C     -3.209403    1.307966    1.672754
  C     -2.559308    1.963568    2.746132
  C     -3.230275    2.202408    3.954766
  C     -4.563536    1.786815    4.116991
  C     -5.222310    1.142213    3.058424
  C      3.492717   -0.829685   -3.419444
  C     -4.554913    0.908552    1.842571
  C     -3.437288    0.097066   -0.960194
  C     -3.814707    0.556463   -2.244433
  C     -4.658881   -0.214516   -3.061572
  C     -5.148796   -1.450020   -2.608977
  C     -4.780593   -1.917288   -1.336690
  C     -3.927488   -1.157210   -0.520622
  C      1.447383   -2.830485    0.715371
  C      1.400920   -3.405847    2.007015
  C      2.538604   -4.020263    2.558228
  C      4.878988   -0.986327   -3.248682
  C      3.736478   -4.077726    1.827796
  C      3.793348   -3.511115    0.543304
  C      2.662807   -2.887337   -0.008699
  C     -0.147778   -2.651716   -1.678827
  C      0.387796   -3.924490   -1.994681
  C      0.235469   -4.464267   -3.282653
  C     -0.455271   -3.746430   -4.273385
  C     -0.992784   -2.484745   -3.970631
  C     -0.838746   -1.939036   -2.685026
  C     -1.363238   -2.846716    0.927502
  C      5.489566   -0.547093   -2.061273
  C     -1.813864   -4.115289    0.497486
  C     -2.794868   -4.812873    1.221137
  C     -3.337699   -4.260046    2.393994
  C     -2.899666   -3.000035    2.833373
  C     -1.925547   -2.296424    2.102572
  C      4.719748    0.049910   -1.048583
  C      3.365628    0.959843    1.581927
  C      4.384631    1.916468    1.807540
  C      5.204679    1.832721    2.945028
  H      1.478434    3.565194    1.344855
  H      1.790200    5.964427    0.761921
  H      2.964533    6.601143   -1.359548
  H      3.847438    4.809768   -2.871561
  H      3.581830    2.412554   -2.260335
  H      2.723935   -2.436865   -1.002748
  H      4.722722   -3.541461   -0.033680
  H      4.620448   -4.560799    2.255756
  H      2.480548   -4.466364    3.556688
  H      0.466509   -3.386438    2.575247
  H     -1.408558   -4.548181   -0.421318
  H     -3.136061   -5.790767    0.865758
  H     -4.102429   -4.804509    2.956999
  H     -3.326214   -2.549504    3.735278
  H     -1.622129   -1.295345    2.424531
  H      2.414940   -0.834349    2.359121
  H      3.873509   -0.983948    4.366037
  H      5.660525    0.730046    4.759435
  H      5.983946    2.584509    3.107590
  H      4.522816    2.735721    1.096213
  H      5.199438    0.385451   -0.124662
  H      1.636263   -0.137665   -2.520720
  H      3.005290   -1.178948   -4.335008
  H      5.479945   -1.453447   -4.035442
  H      6.568676   -0.668734   -1.920745
  H     -4.558472    2.908356    0.047984
  H     -4.975867    5.128954   -0.993590
  H     -3.167490    6.261935   -2.306659
  H     -0.934747    5.147296   -2.558413
  H     -0.518333    2.927554   -1.496836
  H     -1.520505    2.288124    2.621537
  H     -5.076754    0.403883    1.024572
  H     -6.262604    0.820090    3.173599
  H     -2.710648    2.714716    4.771232
  H     -5.085345    1.968254    5.061957
  H     -3.630548   -1.543367    0.457193
  H     -3.456222    1.526928   -2.597742
  H     -4.941209    0.160475   -4.050960
  H     -5.810526   -2.046971   -3.244432
  H     -5.146271   -2.883191   -0.975016
  H      0.944763   -4.480644   -1.234912
  H     -1.251091   -0.952394   -2.453526
  H     -1.538567   -1.919723   -4.732965
  H     -0.572710   -4.168991   -5.276519
  H      0.661357   -5.446668   -3.511798
  H      0.101914   -0.079623    1.963299
  H      0.041254    0.814939    1.997969
  H      0.003903    2.086740    0.388775
  H      0.010735    0.723855   -1.311151

----------------------------
CARTESIAN COORDINATES (A.U.)
----------------------------
  NO LB      ZA    FRAG     MASS         X           Y           Z
   0 Ru   16.0000*   0   101.070    0.021188    0.895876    0.566684
   1 P    15.0000    0    30.974    4.255081    1.939097    0.156371
   2 P    15.0000    0    30.974   -4.218738    2.007813    0.176504
   3 P    15.0000    0    30.974   -0.037222   -3.582628    0.041736
   4 C     6.0000    0    12.011    6.282429    0.395697   -2.283853
   5 C     6.0000    0    12.011    9.492406    1.498014    7.316307
   6 C     6.0000    0    12.011    7.594584   -0.311907    6.906125
   7 C     6.0000    0    12.011    6.035194   -0.156154    4.764087
   8 C     6.0000    0    12.011    4.752242    5.320303   -0.779093
   9 C     6.0000    0    12.011    3.805342    7.252550    0.812163
  10 C     6.0000    0    12.011    4.123528    9.805855    0.181074
  11 C     6.0000    0    12.011    5.367896   10.480565   -2.070259
  12 C     6.0000    0    12.011    6.300587    8.584752   -3.669706
  13 C     6.0000    0    12.011    6.012014    6.020121   -3.023258
  14 C     6.0000    0    12.011   -4.741538    5.208977   -1.254362
  15 C     6.0000    0    12.011    5.140010   -0.451801   -4.545149
  16 C     6.0000    0    12.011   -2.830052    6.434650   -2.652541
  17 C     6.0000    0    12.011   -3.281833    8.803104   -3.772080
  18 C     6.0000    0    12.011   -5.641146    9.982607   -3.500608
  19 C     6.0000    0    12.011   -7.559534    8.781586   -2.107972
  20 C     6.0000    0    12.011   -7.117291    6.413766   -1.000519
  21 C     6.0000    0    12.011   -6.064893    2.471698    3.161047
  22 C     6.0000    0    12.011   -4.836391    3.710606    5.189437
  23 C     6.0000    0    12.011   -6.104335    4.161948    7.473425
  24 C     6.0000    0    12.011   -8.623833    3.376591    7.779985
  25 C     6.0000    0    12.011   -9.868736    2.158470    5.779584
  26 C     6.0000    0    12.011    6.600279   -1.567877   -6.461813
  27 C     6.0000    0    12.011   -8.607538    1.716914    3.481955
  28 C     6.0000    0    12.011   -6.495533    0.183428   -1.814504
  29 C     6.0000    0    12.011   -7.208752    1.051563   -4.241364
  30 C     6.0000    0    12.011   -8.804009   -0.405376   -5.785533
  31 C     6.0000    0    12.011   -9.729814   -2.740141   -4.930252
  32 C     6.0000    0    12.011   -9.034012   -3.623149   -2.525978
  33 C     6.0000    0    12.011   -7.421877   -2.186810   -0.983833
  34 C     6.0000    0    12.011    2.735157   -5.348841    1.351855
  35 C     6.0000    0    12.011    2.647355   -6.436118    3.792709
  36 C     6.0000    0    12.011    4.797266   -7.597196    4.834350
  37 C     6.0000    0    12.011    9.219951   -1.863888   -6.139119
  38 C     6.0000    0    12.011    7.060920   -7.705785    3.454034
  39 C     6.0000    0    12.011    7.168389   -6.635046    1.026696
  40 C     6.0000    0    12.011    5.031976   -5.456276   -0.016439
  41 C     6.0000    0    12.011   -0.279260   -5.011017   -3.172523
  42 C     6.0000    0    12.011    0.732828   -7.416211   -3.769401
  43 C     6.0000    0    12.011    0.444972   -8.436242   -6.203315
  44 C     6.0000    0    12.011   -0.860338   -7.079727   -8.075527
  45 C     6.0000    0    12.011   -1.876090   -4.695488   -7.503405
  46 C     6.0000    0    12.011   -1.585000   -3.664247   -5.073964
  47 C     6.0000    0    12.011   -2.576146   -5.379514    1.752725
  48 C     6.0000    0    12.011   10.373776   -1.033856   -3.895241
  49 C     6.0000    0    12.011   -3.427706   -7.776769    0.940112
  50 C     6.0000    0    12.011   -5.281535   -9.095012    2.307615
  51 C     6.0000    0    12.011   -6.307337   -8.050320    4.523993
  52 C     6.0000    0    12.011   -5.479575   -5.669245    5.354299
  53 C     6.0000    0    12.011   -3.638756   -4.339612    3.973285
  54 C     6.0000    0    12.011    8.919031    0.094316   -1.981535
  55 C     6.0000    0    12.011    6.360115    1.813840    2.989409
  56 C     6.0000    0    12.011    8.285752    3.621600    3.415756
  57 C     6.0000    0    12.011    9.835418    3.463341    5.565296
  58 H     1.0000    0     1.008    2.793835    6.737240    2.541408
  59 H     1.0000    0     1.008    3.382988   11.271134    1.439822
  60 H     1.0000    0     1.008    5.602155   12.474352   -2.569173
  61 H     1.0000    0     1.008    7.270604    9.089144   -5.426464
  62 H     1.0000    0     1.008    6.768678    4.559066   -4.271414
  63 H     1.0000    0     1.008    5.147491   -4.605007   -1.894919
  64 H     1.0000    0     1.008    8.924651   -6.692391   -0.063646
  65 H     1.0000    0     1.008    8.731381   -8.618661    4.262761
  66 H     1.0000    0     1.008    4.687556   -8.440205    6.721166
  67 H     1.0000    0     1.008    0.881574   -6.399440    4.866512
  68 H     1.0000    0     1.008   -2.661789   -8.594816   -0.796176
  69 H     1.0000    0     1.008   -5.926296  -10.942964    1.636046
  70 H     1.0000    0     1.008   -7.752467   -9.079206    5.587918
  71 H     1.0000    0     1.008   -6.285634   -4.817864    7.058652
  72 H     1.0000    0     1.008   -3.065380   -2.447847    4.581700
  73 H     1.0000    0     1.008    4.563575   -1.576691    4.458093
  74 H     1.0000    0     1.008    7.319871   -1.859392    8.250614
  75 H     1.0000    0     1.008   10.696842    1.379587    8.994029
  76 H     1.0000    0     1.008   11.308019    4.884014    5.872494
  77 H     1.0000    0     1.008    8.546884    5.169763    2.071542
  78 H     1.0000    0     1.008    9.825514    0.728397   -0.235577
  79 H     1.0000    0     1.008    3.092089   -0.260149   -4.763470
  80 H     1.0000    0     1.008    5.679175   -2.227889   -8.191978
  81 H     1.0000    0     1.008   10.355595   -2.746617   -7.625880
  82 H     1.0000    0     1.008   12.412999   -1.263724   -3.629682
  83 H     1.0000    0     1.008   -8.614264    5.495996    0.090677
  84 H     1.0000    0     1.008   -9.403026    9.692318   -1.877613
  85 H     1.0000    0     1.008   -5.985689   11.833342   -4.358954
  86 H     1.0000    0     1.008   -1.766416    9.726980   -4.834700
  87 H     1.0000    0     1.008   -0.979507    5.532275   -2.828610
  88 H     1.0000    0     1.008   -2.873338    4.323928    4.953987
  89 H     1.0000    0     1.008   -9.593675    0.763228    1.936160
  90 H     1.0000    0     1.008  -11.834606    1.549746    5.997233
  91 H     1.0000    0     1.008   -5.122382    5.130070    9.016322
  92 H     1.0000    0     1.008   -9.609909    3.719461    9.565712
  93 H     1.0000    0     1.008   -6.860741   -2.916541    0.863970
  94 H     1.0000    0     1.008   -6.531313    2.885476   -4.909021
  95 H     1.0000    0     1.008   -9.337532    0.303254   -7.655205
  96 H     1.0000    0     1.008  -10.980303   -3.868215   -6.131088
  97 H     1.0000    0     1.008   -9.725043   -5.448441   -1.842513
  98 H     1.0000    0     1.008    1.785343   -8.467190   -2.333645
  99 H     1.0000    0     1.008   -2.364219   -1.799764   -4.636492
 100 H     1.0000    0     1.008   -2.907470   -3.627751   -8.944008
 101 H     1.0000    0     1.008   -1.082265   -7.878251   -9.971176
 102 H     1.0000    0     1.008    1.249784  -10.292711   -6.636336
 103 H     1.0000    0     1.008    0.192590   -0.150466    3.710097
 104 H     1.0000    0     1.008    0.077959    1.540012    3.775614
 105 H     1.0000    0     1.008    0.007376    3.943367    0.734678
 106 H     1.0000    0     1.008    0.020286    1.367888   -2.477716
* core charge reduced due to ECP

--------------------------------
INTERNAL COORDINATES (ANGSTROEM)
--------------------------------
 Ru     0   0   0     0.000000000000     0.00000000     0.00000000
 P      1   0   0     2.317682742997     0.00000000     0.00000000
 P      1   2   0     2.328717294565   149.64315660     0.00000000
 P      1   2   3     2.386347195289   103.77832771   152.06515892
 C      2   1   3     1.866946942155   121.07083856   248.65921242
 C      2   1   3     4.700118833633   118.85989875   122.16868880
 C      6   2   1     1.404643164472    59.18282419    38.10828769
 C      7   6   2     1.404493294822   120.31651863   359.78486888
 C      2   1   3     1.875021492176   112.80932606     5.32153582
 C      9   2   1     1.416208234767   118.83920864    59.25861546
 C     10   9   2     1.401958553130   120.77744586   180.29678579
 C     11  10   9     1.407271482720   120.15723246     0.78726209
 C     12  11  10     1.402294757247   119.61385517   359.61185864
 C     13  12  11     1.407899780016   120.31759251   359.56047289
 C      3   1   2     1.876017169732   113.95555002     4.05882473
 C      5   2   1     1.413688944984   118.58839268    29.18628805
 C     15   3   1     1.411123770009   121.39584952    18.55108981
 C     17  15   3     1.406760730413   120.56352038   178.17456653
 C     18  17  15     1.403196456035   120.29131988     0.29941495
 C     19  18  17     1.406267552815   119.66440522   359.81057769
 C     20  19  18     1.402928503582   120.14116300   359.86878140
 C      3   1   2     1.873240326995   117.44114934   249.88187919
 C     22   3   1     1.415831141879   117.41296926    39.85651582
 C     23  22   3     1.402867565612   120.82288023   179.05797728
 C     24  23  22     1.405922966024   120.17534459     0.21423347
 C     25  24  23     1.403587907817   119.59232753   359.44578750
 C     16   5   2     1.405223320512   120.60554167   178.42099001
 C     26  25  24     1.406525768032   120.36680733     0.16769202
 C      3   1   2     1.869148632327   122.71874747   122.25558804
 C     29   3   1     1.415189215014   121.04811107   258.74681810
 C     30  29   3     1.405259586709   120.64984545   176.20912071
 C     31  30  29     1.404040268392   120.32806833     0.49192523
 C     32  31  30     1.404502418439   119.55695524   359.46601332
 C     33  32  31     1.404091766137   120.37657054   359.94201510
 C      4   1   2     1.872570358418   116.25968899    35.49133163
 C     35   4   1     1.414759507531   121.01541828    95.22989711
 C     36  35   4     1.405584460743   120.61208318   184.69407975
 C     27  16   5     1.405504771336   120.10125695     0.32775664
 C     37  36  35     1.404184825039   120.28985653   359.60923715
 C     39  37  36     1.405062959545   119.57550295     0.29983658
 C     40  39  37     1.404253986277   120.39163073     0.16711734
 C      4   1   2     1.865703820217   120.62165020   273.00802702
 C     42   4   1     1.416529884566   122.77565995   151.79653514
 C     43  42   4     1.404789876616   120.57617499   178.38825189
 C     44  43  42     1.404977438251   120.23265411   359.82459161
 C     45  44  43     1.404432002238   119.67931405     0.04576554
 C     46  45  44     1.405100079763   120.27710394     0.17620913
 C      4   1   2     1.878572918568   117.11905980   149.98470809
 C     38  27  16     1.405586046502   119.75280563   359.84403833
 C     48   4   1     1.413242728076   122.39450047   156.04037386
 C     50  48   4     1.404515238391   120.78172116   178.24053245
 C     51  50  48     1.405658823804   120.28460265   359.54975806
 C     52  51  50     1.404476605306   119.56567771     0.45381919
 C     53  52  51     1.406430363396   120.15103584     0.08676537
 C     49  38  27     1.405195136354   120.23831089   359.83327577
 C      8   7   6     1.413599806953   120.52958555     0.26809289
 C     56   8   7     1.415768247420   118.68381200     0.00000000
 C      6   2   1     1.404684343992    60.50628456   218.00101551
 H     10   9   2     1.094639412220   119.35389527   359.53416188
 H     11  10   9     1.094756081963   119.64876602   180.20462583
 H     12  11  10     1.094640163666   120.11337042   179.50743467
 H     13  12  11     1.094967499420   120.20179004   179.95976600
 H     14  13  12     1.092865078565   119.69396995   180.81940303
 H     41  40  39     1.093066818437   119.70446119   179.07327449
 H     40  39  37     1.094334248686   120.34422516   179.49419032
 H     39  37  36     1.094491775131   120.24194486   180.30884529
 H     37  36  35     1.095125094652   119.51810381   180.44083346
 H     36  35   4     1.093795333701   119.67871657     5.68110087
 H     50  48   4     1.093558058686   119.52520807   356.92790936
 H     51  50  48     1.094981082999   119.60268393   179.48111793
 H     52  51  50     1.094635355401   120.21986367   179.98175535
 H     53  52  51     1.094693567758   120.36101557   178.92661289
 H     54  53  52     1.094476698996   119.78511018   177.18109574
 H      8   7   6     1.094414702154   119.81320251   179.89044280
 H      7   6   2     1.094492682182   120.30984088   179.64577991
 H      6   2   1     1.094698735043   179.32999656    23.09552368
 H     58   6   2     1.094928608667   120.15791738   179.77918388
 H     57  56   8     1.093735193346   119.56542163   180.70329211
 H     55  49  38     1.093764267574   119.92316829   179.70507346
 H     16   5   2     1.094562418985   118.90409165   357.17272196
 H     27  16   5     1.094452905151   119.53907820   179.44805719
 H     38  27  16     1.094687949988   120.11257765   179.52462985
 H     49  38  27     1.094999106742   120.11864368   179.82703781
 H     21  20  19     1.093994829312   119.74811948   179.60200589
 H     20  19  18     1.094893437133   120.17248271   179.67127887
 H     19  18  17     1.094858367440   120.23782921   179.47370041
 H     18  17  15     1.094667291741   119.32330910   179.47753546
 H     17  15   3     1.093464425848   119.07198452   357.17070247
 H     23  22   3     1.095432418714   119.10347145   359.27189158
 H     28  26  25     1.093677828633   119.78818732   179.89256611
 H     26  25  24     1.095098221252   120.10792391   180.35036387
 H     24  23  22     1.095028965438   119.67431059   180.24874645
 H     25  24  23     1.094607456743   120.17784088   179.66385152
 H     34  33  32     1.092434330509   119.60552067   181.41994192
 H     30  29   3     1.093225073318   119.60320942   355.38229495
 H     31  30  29     1.095087194797   119.49613498   179.83066020
 H     32  31  30     1.094550202744   120.24684705   179.67359312
 H     33  32  31     1.094302100596   120.36095260   180.64444889
 H     43  42   4     1.093969123955   119.63178101   356.95540003
 H     47  46  45     1.094112921589   120.16587128   179.49510756
 H     46  45  44     1.094660710508   120.29122245   180.40872576
 H     45  44  43     1.094818496098   120.10884365   179.99437506
 H     44  43  42     1.094988467688   119.63170571   179.60343713
 H      1   2   3     1.755501814221    96.54308458   231.60814797
 H    104   1   2     0.897286362509    73.66030620    81.77203340
 H      1   2   3     1.615127984171    76.80325958   335.79094113
 H      1   2   3     1.630275213435    82.60044416    61.68161632

---------------------------
INTERNAL COORDINATES (A.U.)
---------------------------
 Ru     0   0   0     0.000000000000     0.00000000     0.00000000
 P      1   0   0     4.379785649579     0.00000000     0.00000000
 P      1   2   0     4.400637930053   149.64315660     0.00000000
 P      1   2   3     4.509542659548   103.77832771   152.06515892
 C      2   1   3     3.528018427234   121.07083856   248.65921242
 C      2   1   3     8.881937392452   118.85989875   122.16868880
 C      6   2   1     2.654390896737    59.18282419    38.10828769
 C      7   6   2     2.654107684143   120.31651863   359.78486888
 C      2   1   3     3.543277115429   112.80932606     5.32153582
 C      9   2   1     2.676245712313   118.83920864    59.25861546
 C     10   9   2     2.649317716524   120.77744586   180.29678579
 C     11  10   9     2.659357698419   120.15723246     0.78726209
 C     12  11  10     2.649953050231   119.61385517   359.61185864
 C     13  12  11     2.660545008237   120.31759251   359.56047289
 C      3   1   2     3.545158673327   113.95555002     4.05882473
 C      5   2   1     2.671484944571   118.58839268    29.18628805
 C     15   3   1     2.666637466384   121.39584952    18.55108981
 C     17  15   3     2.658392516436   120.56352038   178.17456653
 C     18  17  15     2.651657013996   120.29131988     0.29941495
 C     19  18  17     2.657460545839   119.66440522   359.81057769
 C     20  19  18     2.651150657241   120.14116300   359.86878140
 C      3   1   2     3.539911201038   117.44114934   249.88187919
 C     22   3   1     2.675533110027   117.41296926    39.85651582
 C     23  22   3     2.651035501167   120.82288023   179.05797728
 C     24  23  22     2.656809371176   120.17534459     0.21423347
 C     25  24  23     2.652396750657   119.59232753   359.44578750
 C     16   5   2     2.655487232767   120.60554167   178.42099001
 C     26  25  24     2.657948501884   120.36680733     0.16769202
 C      3   1   2     3.532179018691   122.71874747   122.25558804
 C     29   3   1     2.674320044055   121.04811107   258.74681810
 C     30  29   3     2.655555765948   120.64984545   176.20912071
 C     31  30  29     2.653251588258   120.32806833     0.49192523
 C     32  31  30     2.654124925280   119.55695524   359.46601332
 C     33  32  31     2.653348904892   120.37657054   359.94201510
 C      4   1   2     3.538645143908   116.25968899    35.49133163
 C     35   4   1     2.673508014595   121.01541828    95.22989711
 C     36  35   4     2.656169688899   120.61208318   184.69407975
 C     27  16   5     2.656019097745   120.10125695     0.32775664
 C     37  36  35     2.653524760731   120.28985653   359.60923715
 C     39  37  36     2.655184194457   119.57550295     0.29983658
 C     40  39  37     2.653655456530   120.39163073     0.16711734
 C      4   1   2     3.525669267220   120.62165020   273.00802702
 C     42   4   1     2.676853542344   122.77565995   151.79653514
 C     43  42   4     2.654668142509   120.57617499   178.38825189
 C     44  43  42     2.655022582632   120.23265411   359.82459161
 C     45  44  43     2.653991857944   119.67931405     0.04576554
 C     46  45  44     2.655254341503   120.27710394     0.17620913
 C      4   1   2     3.549988338695   117.11905980   149.98470809
 C     38  27  16     2.656172685550   119.75280563   359.84403833
 C     48   4   1     2.670641716820   122.39450047   156.04037386
 C     50  48   4     2.654149151478   120.78172116   178.24053245
 C     51  50  48     2.656310214720   120.28460265   359.54975806
 C     52  51  50     2.654076145527   119.56567771     0.45381919
 C     53  52  51     2.657768213250   120.15103584     0.08676537
 C     49  38  27     2.655433972427   120.23831089   359.83327577
 C      8   7   6     2.671316498105   120.52958555     0.26809289
 C     56   8   7     2.675414256726   118.68381200     0.00000000
 C      6   2   1     2.654468714752    60.50628456   218.00101551
 H     10   9   2     2.068568704492   119.35389527   359.53416188
 H     11  10   9     2.068789178354   119.64876602   180.20462583
 H     12  11  10     2.068570124519   120.11337042   179.50743467
 H     13  12  11     2.069188699448   120.20179004   179.95976600
 H     14  13  12     2.065215699813   119.69396995   180.81940303
 H     41  40  39     2.065596932923   119.70446119   179.07327449
 H     40  39  37     2.067992028988   120.34422516   179.49419032
 H     39  37  36     2.068289710827   120.24194486   180.30884529
 H     37  36  35     2.069486511277   119.51810381   180.44083346
 H     36  35   4     2.066973627256   119.67871657     5.68110087
 H     50  48   4     2.066525242458   119.52520807   356.92790936
 H     51  50  48     2.069214368693   119.60268393   179.48111793
 H     52  51  50     2.068561038216   120.21986367   179.98175535
 H     53  52  51     2.068671043627   120.36101557   178.92661289
 H     54  53  52     2.068261221061   119.78511018   177.18109574
 H      8   7   6     2.068144064007   119.81320251   179.89044280
 H      7   6   2     2.068291424904   120.30984088   179.64577991
 H      6   2   1     2.068680808382   179.32999656    23.09552368
 H     58   6   2     2.069115206576   120.15791738   179.77918388
 H     57  56   8     2.066859978455   119.56542163   180.70329211
 H     55  49  38     2.066914920784   119.92316829   179.70507346
 H     16   5   2     2.068423208364   118.90409165   357.17272196
 H     27  16   5     2.068216257210   119.53907820   179.44805719
 H     38  27  16     2.068660427581   120.11257765   179.52462985
 H     49  38  27     2.069248428630   120.11864368   179.82703781
 H     21  20  19     2.067350619325   119.74811948   179.60200589
 H     20  19  18     2.069048742010   120.17248271   179.67127887
 H     19  18  17     2.068982469894   120.23782921   179.47370041
 H     18  17  15     2.068621389152   119.32330910   179.47753546
 H     17  15   3     2.066348302039   119.07198452   357.17070247
 H     23  22   3     2.070067269589   119.10347145   359.27189158
 H     28  26  25     2.066751574858   119.78818732   179.89256611
 H     26  25  24     2.069435727911   120.10792391   180.35036387
 H     24  23  22     2.069304853390   119.67431059   180.24874645
 H     25  24  23     2.068508317393   120.17784088   179.66385152
 H     34  33  32     2.064401703955   119.60552067   181.41994192
 H     30  29   3     2.065895991307   119.60320942   355.38229495
 H     31  30  29     2.069414890931   119.49613498   179.83066020
 H     32  31  30     2.068400123013   120.24684705   179.67359312
 H     33  32  31     2.067931277901   120.36095260   180.64444889
 H     43  42   4     2.067302043240   119.63178101   356.95540003
 H     47  46  45     2.067573781389   120.16587128   179.49510756
 H     46  45  44     2.068608952423   120.29122245   180.40872576
 H     45  44  43     2.068907123977   120.10884365   179.99437506
 H     44  43  42     2.069228323733   119.63170571   179.60343713
 H      1   2   3     3.317417656479    96.54308458   231.60814797
 H    104   1   2     1.695625488844    73.66030620    81.77203340
 H      1   2   3     3.052149561315    76.80325958   335.79094113
 H      1   2   3     3.080773676313    82.60044416    61.68161632

---------------------
BASIS SET INFORMATION
---------------------
There are 4 groups of distinct atoms

 Group   1 Type Ru  : 7s6p5d1f contracted to 5s3p2d1f pattern {31111/411/41/1}
 Group   2 Type P   : 10s7p1d contracted to 4s3p1d pattern {5311/511/1}
 Group   3 Type C   : 7s4p1d contracted to 3s2p1d pattern {511/31/1}
 Group   4 Type H   : 4s1p contracted to 2s1p pattern {31/1}

Atom   0Ru   basis set group =>   1
Atom   1P    basis set group =>   2
Atom   2P    basis set group =>   2
Atom   3P    basis set group =>   2
Atom   4C    basis set group =>   3
Atom   5C    basis set group =>   3
Atom   6C    basis set group =>   3
Atom   7C    basis set group =>   3
Atom   8C    basis set group =>   3
Atom   9C    basis set group =>   3
Atom  10C    basis set group =>   3
Atom  11C    basis set group =>   3
Atom  12C    basis set group =>   3
Atom  13C    basis set group =>   3
Atom  14C    basis set group =>   3
Atom  15C    basis set group =>   3
Atom  16C    basis set group =>   3
Atom  17C    basis set group =>   3
Atom  18C    basis set group =>   3
Atom  19C    basis set group =>   3
Atom  20C    basis set group =>   3
Atom  21C    basis set group =>   3
Atom  22C    basis set group =>   3
Atom  23C    basis set group =>   3
Atom  24C    basis set group =>   3
Atom  25C    basis set group =>   3
Atom  26C    basis set group =>   3
Atom  27C    basis set group =>   3
Atom  28C    basis set group =>   3
Atom  29C    basis set group =>   3
Atom  30C    basis set group =>   3
Atom  31C    basis set group =>   3
Atom  32C    basis set group =>   3
Atom  33C    basis set group =>   3
Atom  34C    basis set group =>   3
Atom  35C    basis set group =>   3
Atom  36C    basis set group =>   3
Atom  37C    basis set group =>   3
Atom  38C    basis set group =>   3
Atom  39C    basis set group =>   3
Atom  40C    basis set group =>   3
Atom  41C    basis set group =>   3
Atom  42C    basis set group =>   3
Atom  43C    basis set group =>   3
Atom  44C    basis set group =>   3
Atom  45C    basis set group =>   3
Atom  46C    basis set group =>   3
Atom  47C    basis set group =>   3
Atom  48C    basis set group =>   3
Atom  49C    basis set group =>   3
Atom  50C    basis set group =>   3
Atom  51C    basis set group =>   3
Atom  52C    basis set group =>   3
Atom  53C    basis set group =>   3
Atom  54C    basis set group =>   3
Atom  55C    basis set group =>   3
Atom  56C    basis set group =>   3
Atom  57C    basis set group =>   3
Atom  58H    basis set group =>   4
Atom  59H    basis set group =>   4
Atom  60H    basis set group =>   4
Atom  61H    basis set group =>   4
Atom  62H    basis set group =>   4
Atom  63H    basis set group =>   4
Atom  64H    basis set group =>   4
Atom  65H    basis set group =>   4
Atom  66H    basis set group =>   4
Atom  67H    basis set group =>   4
Atom  68H    basis set group =>   4
Atom  69H    basis set group =>   4
Atom  70H    basis set group =>   4
Atom  71H    basis set group =>   4
Atom  72H    basis set group =>   4
Atom  73H    basis set group =>   4
Atom  74H    basis set group =>   4
Atom  75H    basis set group =>   4
Atom  76H    basis set group =>   4
Atom  77H    basis set group =>   4
Atom  78H    basis set group =>   4
Atom  79H    basis set group =>   4
Atom  80H    basis set group =>   4
Atom  81H    basis set group =>   4
Atom  82H    basis set group =>   4
Atom  83H    basis set group =>   4
Atom  84H    basis set group =>   4
Atom  85H    basis set group =>   4
Atom  86H    basis set group =>   4
Atom  87H    basis set group =>   4
Atom  88H    basis set group =>   4
Atom  89H    basis set group =>   4
Atom  90H    basis set group =>   4
Atom  91H    basis set group =>   4
Atom  92H    basis set group =>   4
Atom  93H    basis set group =>   4
Atom  94H    basis set group =>   4
Atom  95H    basis set group =>   4
Atom  96H    basis set group =>   4
Atom  97H    basis set group =>   4
Atom  98H    basis set group =>   4
Atom  99H    basis set group =>   4
Atom 100H    basis set group =>   4
Atom 101H    basis set group =>   4
Atom 102H    basis set group =>   4
Atom 103H    basis set group =>   4
Atom 104H    basis set group =>   4
Atom 105H    basis set group =>   4
Atom 106H    basis set group =>   4
---------------------------------
AUXILIARY/J BASIS SET INFORMATION
---------------------------------
There are 4 groups of distinct atoms

 Group   1 Type Ru  : 11s5p5d3f3g contracted to 8s5p5d2f3g pattern {41111111/11111/11111/21/111}
 Group   2 Type P   : 14s5p5d2f1g contracted to 8s4p3d1f1g pattern {71111111/2111/311/2/1}
 Group   3 Type C   : 12s5p4d2f1g contracted to 6s4p3d1f1g pattern {711111/2111/211/2/1}
 Group   4 Type H   : 5s2p1d contracted to 3s1p1d pattern {311/2/1}

Atom   0Ru   basis set group =>   1
Atom   1P    basis set group =>   2
Atom   2P    basis set group =>   2
Atom   3P    basis set group =>   2
Atom   4C    basis set group =>   3
Atom   5C    basis set group =>   3
Atom   6C    basis set group =>   3
Atom   7C    basis set group =>   3
Atom   8C    basis set group =>   3
Atom   9C    basis set group =>   3
Atom  10C    basis set group =>   3
Atom  11C    basis set group =>   3
Atom  12C    basis set group =>   3
Atom  13C    basis set group =>   3
Atom  14C    basis set group =>   3
Atom  15C    basis set group =>   3
Atom  16C    basis set group =>   3
Atom  17C    basis set group =>   3
Atom  18C    basis set group =>   3
Atom  19C    basis set group =>   3
Atom  20C    basis set group =>   3
Atom  21C    basis set group =>   3
Atom  22C    basis set group =>   3
Atom  23C    basis set group =>   3
Atom  24C    basis set group =>   3
Atom  25C    basis set group =>   3
Atom  26C    basis set group =>   3
Atom  27C    basis set group =>   3
Atom  28C    basis set group =>   3
Atom  29C    basis set group =>   3
Atom  30C    basis set group =>   3
Atom  31C    basis set group =>   3
Atom  32C    basis set group =>   3
Atom  33C    basis set group =>   3
Atom  34C    basis set group =>   3
Atom  35C    basis set group =>   3
Atom  36C    basis set group =>   3
Atom  37C    basis set group =>   3
Atom  38C    basis set group =>   3
Atom  39C    basis set group =>   3
Atom  40C    basis set group =>   3
Atom  41C    basis set group =>   3
Atom  42C    basis set group =>   3
Atom  43C    basis set group =>   3
Atom  44C    basis set group =>   3
Atom  45C    basis set group =>   3
Atom  46C    basis set group =>   3
Atom  47C    basis set group =>   3
Atom  48C    basis set group =>   3
Atom  49C    basis set group =>   3
Atom  50C    basis set group =>   3
Atom  51C    basis set group =>   3
Atom  52C    basis set group =>   3
Atom  53C    basis set group =>   3
Atom  54C    basis set group =>   3
Atom  55C    basis set group =>   3
Atom  56C    basis set group =>   3
Atom  57C    basis set group =>   3
Atom  58H    basis set group =>   4
Atom  59H    basis set group =>   4
Atom  60H    basis set group =>   4
Atom  61H    basis set group =>   4
Atom  62H    basis set group =>   4
Atom  63H    basis set group =>   4
Atom  64H    basis set group =>   4
Atom  65H    basis set group =>   4
Atom  66H    basis set group =>   4
Atom  67H    basis set group =>   4
Atom  68H    basis set group =>   4
Atom  69H    basis set group =>   4
Atom  70H    basis set group =>   4
Atom  71H    basis set group =>   4
Atom  72H    basis set group =>   4
Atom  73H    basis set group =>   4
Atom  74H    basis set group =>   4
Atom  75H    basis set group =>   4
Atom  76H    basis set group =>   4
Atom  77H    basis set group =>   4
Atom  78H    basis set group =>   4
Atom  79H    basis set group =>   4
Atom  80H    basis set group =>   4
Atom  81H    basis set group =>   4
Atom  82H    basis set group =>   4
Atom  83H    basis set group =>   4
Atom  84H    basis set group =>   4
Atom  85H    basis set group =>   4
Atom  86H    basis set group =>   4
Atom  87H    basis set group =>   4
Atom  88H    basis set group =>   4
Atom  89H    basis set group =>   4
Atom  90H    basis set group =>   4
Atom  91H    basis set group =>   4
Atom  92H    basis set group =>   4
Atom  93H    basis set group =>   4
Atom  94H    basis set group =>   4
Atom  95H    basis set group =>   4
Atom  96H    basis set group =>   4
Atom  97H    basis set group =>   4
Atom  98H    basis set group =>   4
Atom  99H    basis set group =>   4
Atom 100H    basis set group =>   4
Atom 101H    basis set group =>   4
Atom 102H    basis set group =>   4
Atom 103H    basis set group =>   4
Atom 104H    basis set group =>   4
Atom 105H    basis set group =>   4
Atom 106H    basis set group =>   4
-------------------------
ECP PARAMETER INFORMATION
-------------------------

 Group 1, Type Ru ECP Def2-ECP (replacing 28 core electrons, lmax=3)

Atom   0Ru   ECP group =>   1

------------------------------------------------------------------------------
                             ORCA STARTUP CALCULATIONS
                           -- RI-GTO INTEGRALS CHOSEN --
------------------------------------------------------------------------------
------------------------------------------------------------------------------
                   ___                                                        
                  /   \      - P O W E R E D   B Y -                         
                 /     \                                                     
                 |  |  |   _    _      __       _____    __    __             
                 |  |  |  | |  | |    /  \     |  _  \  |  |  /  |          
                  \  \/   | |  | |   /    \    | | | |  |  | /  /          
                 / \  \   | |__| |  /  /\  \   | |_| |  |  |/  /          
                |  |  |   |  __  | /  /__\  \  |    /   |      \           
                |  |  |   | |  | | |   __   |  |    \   |  |\   \          
                \     /   | |  | | |  |  |  |  | |\  \  |  | \   \       
                 \___/    |_|  |_| |__|  |__|  |_| \__\ |__|  \__/        
                                                                              
                      - O R C A' S   B I G   F R I E N D -                    
                                      &                                       
                       - I N T E G R A L  F E E D E R -                       
                                                                              
 v1 FN, 2020, v2 2021, v3 2022-2024                                           
------------------------------------------------------------------------------


----------------------
SHARK INTEGRAL PACKAGE
----------------------

Number of atoms                             ...    107
Number of basis functions                   ...   1086
Number of shells                            ...    506
Maximum angular momentum                    ...      3
Integral batch strategy                     ... SHARK/LIBINT Hybrid
RI-J (if used) integral strategy            ... SPLIT-RIJ (Revised 2003 algorithm where possible)
Printlevel                                  ...      1
Contraction scheme used                     ... SEGMENTED contraction
Prescreening option                         ... SCHWARTZ
   Thresh                                   ... 1.000e-12
   Tcut                                     ... 1.000e-14
   Tpresel                                  ... 1.000e-14 
Coulomb Range Separation                    ... NOT USED
Exchange Range Separation                   ... NOT USED
Multipole approximations                    ... NOT USED
Finite Nucleus Model                        ... NOT USED
CABS basis                                  ... NOT available
Auxiliary Coulomb fitting basis             ... AVAILABLE
   # of basis functions in Aux-J            ...   3427
   # of shells in Aux-J                     ...   1129
   Maximum angular momentum in Aux-J        ...      4
Auxiliary J/K fitting basis                 ... NOT available
Auxiliary Correlation fitting basis         ... NOT available
Auxiliary 'external' fitting basis          ... NOT available

Checking pre-screening integrals            ... done (  0.0 sec) Dimension = 506
   => SHARK Basis and OBASIS are compatible. Storing Pre-screening
Shell pair information
Shell pair cut-off parameter TPreSel        ...   1.0e-14
Total number of shell pairs                 ...    128271
Shell pairs after pre-screening             ...     78763
Total number of primitive shell pairs       ...    467994
Primitive shell pairs kept                  ...    165672
          la=0 lb=0:  24882 shell pairs
          la=1 lb=0:  29796 shell pairs
          la=1 lb=1:   9096 shell pairs
          la=2 lb=0:   8742 shell pairs
          la=2 lb=1:   5215 shell pairs
          la=2 lb=2:    684 shell pairs
          la=3 lb=0:    197 shell pairs
          la=3 lb=1:    117 shell pairs
          la=3 lb=2:     33 shell pairs
          la=3 lb=3:      1 shell pairs

Checking whether 4 symmetric matrices of dimension 1086 fit in memory
:Max Core in MB      =   4096.00
 MB in use           =     96.46
 MB left             =   3999.54
 MB needed           =     18.01
 Data fit in memory  = YES
Calculating RI/J V-Matrix + Cholesky decomp.... done (  0.9 sec)
Calculating Nuclear repulsion               ... done (  0.0 sec) ENN=   9588.617609795761 Eh

Diagonalization of the overlap matrix:
Smallest eigenvalue                        ... 2.619e-04
Time for diagonalization                   ...    0.389 sec
Threshold for overlap eigenvalues          ... 1.000e-07
Number of eigenvalues below threshold      ... 0
Time for construction of square roots      ...    0.200 sec
Total time needed                          ...    0.594 sec

-------------------
DFT GRID GENERATION
-------------------

General Integration Accuracy     IntAcc      ... 4.959
Radial Grid Type                 RadialGrid  ... OptM3 with GC (2021)
Angular Grid (max. ang.)         AngularGrid ... 6 (Lebedev-590)
Angular grid pruning method      GridPruning ... 4 (adaptive)
Weight generation scheme         WeightScheme... mBecke (2022)
Basis function cutoff            BFCut       ... 1.0000e-12
Integration weight cutoff        WCut        ... 1.0000e-14
Partially contracted basis set               ... off
Rotationally invariant grid construction     ... off
Angular grids for H and He will be reduced by one unit

Total number of grid points                  ...  1224805
Total number of batches                      ...    19192
Average number of points per batch           ...       63
Average number of grid points per atom       ...    11447
Grids setup in  43.8 sec
Initializing property integral containers    ... done (  0.0 sec)

SHARK setup successfully completed in  48.7 seconds

Maximum memory used throughout the entire STARTUP-calculation: 488.7 MB
-------------------------------------------------------------------------------
                                 ORCA GUESS
                   Start orbitals & Density for SCF / CASSCF
-------------------------------------------------------------------------------

------------
SCF SETTINGS
------------
Hamiltonian:
 Density Functional     Method          .... DFT(GTOs)
 Exchange Functional    Exchange        .... B88
   X-Alpha parameter    XAlpha          ....  0.666667
   Becke's b parameter  XBeta           ....  0.004200
 Correlation Functional Correlation     .... P86
 LDA part of GGA corr.  LDAOpt          .... PW91-LDA
 Gradients option       PostSCFGGA      .... off
   NL short-range parameter             ....  4.400000
 RI-approximation to the Coulomb term is turned on
   Number of AuxJ basis functions       .... 3427


General Settings:
 Integral files         IntName         .... 1b_def2svp
 Hartree-Fock type      HFTyp           .... RHF
 Total Charge           Charge          ....    0
 Multiplicity           Mult            ....    1
 Number of Electrons    NEL             ....  434
 Basis Dimension        Dim             .... 1086
 Nuclear Repulsion      ENuc            ....   9588.6176097958 Eh

Convergence Acceleration:
 AO-DIIS                CNVDIIS         .... on
   Start iteration      DIISMaxIt       ....    12
   Startup error        DIISStart       ....  0.200000
   # of expansion vecs  DIISMaxEq       ....     5
   Bias factor          DIISBfac        ....   1.050
   Max. coefficient     DIISMaxC        ....  10.000
 MO-DIIS                CNVKDIIS        .... off
 Trust-Rad. Augm. Hess. CNVTRAH         .... auto
   Auto Start mean grad. ratio tolernc. ....  1.125000
   Auto Start start iteration           ....    50
   Auto Start num. interpolation iter.  ....    10
   Max. Number of Micro iterations      ....    24
   Max. Number of Macro iterations      .... Maxiter - #DIIS iter
   Number of Davidson start vectors     ....     2
   Converg. threshold    (grad. norm)   ....   2.000e-06
   Grad. Scal. Fac. for Micro threshold ....   0.100
   Minimum threshold for Micro iter.    ....   1.000e-02
   NR start threshold (gradient norm)   ....   1.000e-04
   Initial trust radius                 ....   0.400
   Minimum AH scaling param. (alpha)    ....   1.000
   Maximum AH scaling param. (alpha)    .... 1000.000
   Quad. conv. algorithm                .... NR
   White noise on init. David. guess    .... on
   Maximum white noise                  ....   0.010
   Pseudo random numbers                .... off
   Inactive MOs                         .... canonical
   Orbital update algorithm             .... Taylor
   Preconditioner                       .... Diag
   Full preconditioner red. dimension   ....   250
 SOSCF                 CNVSOSCF           .... on
   Start iteration     SOSCFMaxIt         ....   150
   Startup grad/error  SOSCFStart         ....  0.003300
   Hessian update      SOSCFHessUp        .... L-BFGS
   Autom. constraints  SOSCFAutoConstrain .... off
 Level Shifting         CNVShift        .... on
   Level shift para.    LevelShift      ....    0.2500
   Turn off err/grad.   ShiftErr        ....    0.0010
 Zerner damping         CNVZerner       .... off
 Static damping         CNVDamp         .... on
   Fraction old density DampFac         ....    0.7000
   Max. Damping (<1)    DampMax         ....    0.9800
   Min. Damping (>=0)   DampMin         ....    0.0000
   Turn off err/grad.   DampErr         ....    0.1000

SCF Procedure:
 Maximum # iterations   MaxIter         ....   125
 SCF integral mode      SCFMode         .... Direct
   Integral package                     .... SHARK and LIBINT hybrid scheme
 Reset frequency        DirectResetFreq ....    20
 Integral Threshold     Thresh          ....  1.000e-12 Eh
 Primitive CutOff       TCut            ....  1.000e-14 Eh

Convergence Tolerance:
 Convergence Check Mode ConvCheckMode   .... Total+1el-Energy
 Convergence forced     ConvForced      .... 0
 Energy Change          TolE            ....  1.000e-09 Eh
 1-El. energy change                    ....  1.000e-06 Eh
 Orbital Gradient       TolG            ....  2.000e-06
 Orbital Rotation angle TolX            ....  2.000e-06
 DIIS Error             TolErr          ....  1.000e-08

------------------------------
INITIAL GUESS: MODEL POTENTIAL
------------------------------
Loading Hartree-Fock densities                     ... done
Atomic calculation to generate a density for atom 0 (Ru with ECP)
  Multiplicity assumed   :    5
  Atomic configuration   : 1s2 2s2 2p6 3s2 3p6 4s2 3d10 4p6 5s2 4d6 
  Number of open shells  : 1
  Command: /home/ylvao/work/software/orca_6_1_1_linux_x86-64_shared_openmpi418/orca 1b_def2svp_atom44.inp "" > 1b_def2svp_atom44.out
Returned from the atomic calculation with res=0
Calculating cut-offs                               ... done
Initializing the effective Hamiltonian             ... done
Setting up the integral package (SHARK)            ... done
Starting the Coulomb interaction                   ... done (  16.6 sec)
Making the grid                                    ... done (   4.6 sec)
Mapping shells                                     ... done
Starting the XC term evaluation                    ... done (   4.7 sec)
  promolecular density results
     # of electrons  =    461.976923109
     EX              =   -489.226719438
     EC              =    -18.136513767
     EX+EC           =   -507.363233206
Transforming the Hamiltonian                       ... done (   0.2 sec)
Diagonalizing the Hamiltonian                      ... done (   0.4 sec)
Back transforming the eigenvectors                 ... done (   0.1 sec)
Now organizing SCF variables                       ... done
                      ------------------
                      INITIAL GUESS DONE (  28.0 sec)
                      ------------------
             **** ENERGY FILE WAS UPDATED (1b_def2svp.en.tmp) ****
Finished Guess after  28.6 sec
Maximum memory used throughout the entire GUESS-calculation: 171.6 MB

-------------------------------------------------------------------------------------------
                                      ORCA LEAN-SCF
                              memory conserving SCF solver
-------------------------------------------------------------------------------------------

----------------------------------------D-I-I-S--------------------------------------------
Iteration    Energy (Eh)           Delta-E    RMSDP     MaxDP     DIISErr   Damp  Time(sec)
-------------------------------------------------------------------------------------------
               ***  Starting incremental Fock matrix formation  ***
    1    -3203.7978401705040596     0.00e+00  1.13e-03  6.94e-02  4.68e-01  0.700  98.2
    2    -3204.2130973914190690    -4.15e-01  7.93e-04  3.77e-02  3.20e-01  0.700  74.1
    3    -3204.3716720291031379    -1.59e-01  4.07e-04  1.91e-02  2.20e-01  0.700  87.2
                               ***Turning on AO-DIIS***
    4    -3204.4596114154446695    -8.79e-02  2.11e-04  1.67e-02  1.55e-01  0.700  70.7
    5    -3204.5237521136514260    -6.41e-02  1.20e-04  1.01e-02  1.08e-01  0.700  75.0
    6    -3204.5685876540483150    -4.48e-02  7.51e-05  9.28e-03  7.62e-02  0.700  65.9
    7    -3204.5998209471017617    -3.12e-02  1.60e-04  1.89e-02  5.30e-02  0.000  59.6
                              *** Initializing SOSCF ***
---------------------------------------S-O-S-C-F--------------------------------------
Iteration    Energy (Eh)           Delta-E    RMSDP     MaxDP     MaxGrad    Time(sec)
--------------------------------------------------------------------------------------
    8    -3204.6723259708269325    -7.25e-02  2.00e-05  1.52e-03  6.20e-04    90.7
               *** Restarting incremental Fock matrix formation ***
    9    -3204.6723378997830878    -1.19e-05  2.51e-05  2.23e-03  1.40e-04   109.4
   10    -3204.6722940031177131     4.39e-05  1.88e-05  1.18e-03  5.17e-04    71.0
   11    -3204.6723428523127950    -4.88e-05  1.29e-05  1.64e-03  8.41e-05    59.8
   12    -3204.6723309157659969     1.19e-05  9.66e-06  1.97e-03  3.26e-04    67.4
   13    -3204.6723426713670051    -1.18e-05  1.60e-05  1.64e-03  1.85e-04    52.5
   14    -3204.6723217424205359     2.09e-05  1.25e-05  9.84e-04  3.53e-04    55.4
   15    -3204.6723452791629825    -2.35e-05  3.84e-06  2.16e-04  3.50e-05    66.0
   16    -3204.6723441575286415     1.12e-06  2.80e-06  1.67e-04  9.33e-05    52.9
   17    -3204.6723454679849965    -1.31e-06  1.19e-06  9.29e-05  9.13e-06    44.5
   18    -3204.6723453863723989     8.16e-08  8.18e-07  6.17e-05  2.09e-05    52.5
   19    -3204.6723454868515546    -1.00e-07  5.03e-07  3.65e-05  5.10e-06    60.4
   20    -3204.6723454690236395     1.78e-08  3.58e-07  2.64e-05  1.13e-05    48.1
   21    -3204.6723454906023107    -2.16e-08  1.55e-07  1.29e-05  8.37e-07    50.9
   22    -3204.6723454916173068    -1.01e-09  1.04e-07  7.03e-06  2.33e-06    50.0
   23    -3204.6723454912898887     3.27e-10  6.56e-08  6.58e-06  4.32e-07    48.1
                 **** Energy Check signals convergence ****

               *****************************************************
               *                     SUCCESS                       *
               *           SCF CONVERGED AFTER  23 CYCLES          *
               *****************************************************

             **** ENERGY FILE WAS UPDATED (1b_def2svp.en.tmp) ****

----------------
TOTAL SCF ENERGY
----------------

Total Energy       :      -3204.67234549232853 Eh          -87203.56786 eV

Components:
Nuclear Repulsion  :       9588.61760979576138 Eh          260919.55006 eV
Electronic Energy  :     -12793.28995528808991 Eh         -348123.11792 eV
One Electron Energy:     -23518.38728266327598 Eh         -639967.85330 eV
Two Electron Energy:      10725.09732737518607 Eh          291844.73538 eV

Virial components:
Potential Energy   :      -6318.34919923156122 Eh         -171931.02252 eV
Kinetic Energy     :       3113.67685373923268 Eh           84727.45465 eV
Virial Ratio       :          2.02922444942988

DFT components:
N(Alpha)           :      217.000085059076 electrons
N(Beta)            :      217.000085059076 electrons
N(Total)           :      434.000170118152 electrons
E(X)               :     -374.340498659760 Eh       
E(C)               :      -16.236681237991 Eh       
E(XC)              :     -390.577179897751 Eh       

---------------
SCF CONVERGENCE
---------------

  Last Energy change         ...   -3.2742e-10  Tolerance :   1.0000e-09
  Last MAX-Density change    ...    6.5768e-06  Tolerance :   1.0000e-08
  Last RMS-Density change    ...    6.5592e-08  Tolerance :   1.0000e-09
  Last DIIS Error            ...    6.1988e-04  Tolerance :   1.0000e-08
  Last Orbital Gradient      ...    4.3177e-07  Tolerance :   2.0000e-06
  Last Orbital Rotation      ...    1.6218e-06  Tolerance :   2.0000e-06


----------------
ORBITAL ENERGIES
----------------

  NO   OCC          E(Eh)            E(eV) 
   0   2.0000     -76.376963     -2078.3228 
   1   2.0000     -76.376148     -2078.3006 
   2   2.0000     -76.373451     -2078.2272 
   3   2.0000      -9.924286      -270.0535 
   4   2.0000      -9.922794      -270.0130 
   5   2.0000      -9.922762      -270.0121 
   6   2.0000      -9.922457      -270.0038 
   7   2.0000      -9.921939      -269.9897 
   8   2.0000      -9.921663      -269.9822 
   9   2.0000      -9.921535      -269.9787 
  10   2.0000      -9.921435      -269.9760 
  11   2.0000      -9.921330      -269.9731 
  12   2.0000      -9.920895      -269.9613 
  13   2.0000      -9.920586      -269.9529 
  14   2.0000      -9.920443      -269.9490 
  15   2.0000      -9.920112      -269.9400 
  16   2.0000      -9.920055      -269.9384 
  17   2.0000      -9.919653      -269.9275 
  18   2.0000      -9.919575      -269.9254 
  19   2.0000      -9.919488      -269.9230 
  20   2.0000      -9.919161      -269.9141 
  21   2.0000      -9.919133      -269.9133 
  22   2.0000      -9.919129      -269.9132 
  23   2.0000      -9.918883      -269.9065 
  24   2.0000      -9.918874      -269.9063 
  25   2.0000      -9.918626      -269.8995 
  26   2.0000      -9.918456      -269.8949 
  27   2.0000      -9.918077      -269.8846 
  28   2.0000      -9.917971      -269.8817 
  29   2.0000      -9.917764      -269.8761 
  30   2.0000      -9.917625      -269.8723 
  31   2.0000      -9.917238      -269.8618 
  32   2.0000      -9.916702      -269.8472 
  33   2.0000      -9.916614      -269.8448 
  34   2.0000      -9.916522      -269.8423 
  35   2.0000      -9.916512      -269.8420 
  36   2.0000      -9.916492      -269.8415 
  37   2.0000      -9.916486      -269.8413 
  38   2.0000      -9.916369      -269.8381 
  39   2.0000      -9.916270      -269.8354 
  40   2.0000      -9.916159      -269.8324 
  41   2.0000      -9.915858      -269.8242 
  42   2.0000      -9.915657      -269.8188 
  43   2.0000      -9.915618      -269.8177 
  44   2.0000      -9.915574      -269.8165 
  45   2.0000      -9.915451      -269.8131 
  46   2.0000      -9.915362      -269.8107 
  47   2.0000      -9.915308      -269.8093 
  48   2.0000      -9.915119      -269.8041 
  49   2.0000      -9.914925      -269.7988 
  50   2.0000      -9.914583      -269.7895 
  51   2.0000      -9.914581      -269.7895 
  52   2.0000      -9.914077      -269.7758 
  53   2.0000      -9.913420      -269.7579 
  54   2.0000      -9.913037      -269.7475 
  55   2.0000      -9.910882      -269.6888 
  56   2.0000      -9.908048      -269.6117 
  57   2.0000      -6.336745      -172.4316 
  58   2.0000      -6.336422      -172.4228 
  59   2.0000      -6.333825      -172.3522 
  60   2.0000      -4.558765      -124.0503 
  61   2.0000      -4.558525      -124.0438 
  62   2.0000      -4.558413      -124.0407 
  63   2.0000      -4.558096      -124.0321 
  64   2.0000      -4.555768      -123.9688 
  65   2.0000      -4.555749      -123.9682 
  66   2.0000      -4.555559      -123.9631 
  67   2.0000      -4.555427      -123.9595 
  68   2.0000      -4.552726      -123.8860 
  69   2.0000      -2.834166       -77.1216 
  70   2.0000      -1.714040       -46.6414 
  71   2.0000      -1.713353       -46.6227 
  72   2.0000      -1.711949       -46.5845 
  73   2.0000      -0.775326       -21.0977 
  74   2.0000      -0.773724       -21.0541 
  75   2.0000      -0.772130       -21.0107 
  76   2.0000      -0.767232       -20.8774 
  77   2.0000      -0.766121       -20.8472 
  78   2.0000      -0.764941       -20.8151 
  79   2.0000      -0.764472       -20.8024 
  80   2.0000      -0.763712       -20.7817 
  81   2.0000      -0.760818       -20.7029 
  82   2.0000      -0.694708       -18.9040 
  83   2.0000      -0.693282       -18.8652 
  84   2.0000      -0.691941       -18.8287 
  85   2.0000      -0.670393       -18.2423 
  86   2.0000      -0.668230       -18.1835 
  87   2.0000      -0.667662       -18.1680 
  88   2.0000      -0.666841       -18.1457 
  89   2.0000      -0.666108       -18.1257 
  90   2.0000      -0.665858       -18.1189 
  91   2.0000      -0.665394       -18.1063 
  92   2.0000      -0.665181       -18.1005 
  93   2.0000      -0.662008       -18.0141 
  94   2.0000      -0.661105       -17.9896 
  95   2.0000      -0.660933       -17.9849 
  96   2.0000      -0.660337       -17.9687 
  97   2.0000      -0.659885       -17.9564 
  98   2.0000      -0.659115       -17.9354 
  99   2.0000      -0.656808       -17.8727 
 100   2.0000      -0.586692       -15.9647 
 101   2.0000      -0.584325       -15.9003 
 102   2.0000      -0.583116       -15.8674 
 103   2.0000      -0.544802       -14.8248 
 104   2.0000      -0.542596       -14.7648 
 105   2.0000      -0.542106       -14.7515 
 106   2.0000      -0.539058       -14.6685 
 107   2.0000      -0.538594       -14.6559 
 108   2.0000      -0.537602       -14.6289 
 109   2.0000      -0.536924       -14.6104 
 110   2.0000      -0.536044       -14.5865 
 111   2.0000      -0.533484       -14.5168 
 112   2.0000      -0.530070       -14.4239 
 113   2.0000      -0.528332       -14.3766 
 114   2.0000      -0.528233       -14.3739 
 115   2.0000      -0.527968       -14.3668 
 116   2.0000      -0.527582       -14.3562 
 117   2.0000      -0.524557       -14.2739 
 118   2.0000      -0.501267       -13.6402 
 119   2.0000      -0.499315       -13.5871 
 120   2.0000      -0.497495       -13.5375 
 121   2.0000      -0.463527       -12.6132 
 122   2.0000      -0.461669       -12.5627 
 123   2.0000      -0.461307       -12.5528 
 124   2.0000      -0.460589       -12.5333 
 125   2.0000      -0.459386       -12.5005 
 126   2.0000      -0.457478       -12.4486 
 127   2.0000      -0.444715       -12.1013 
 128   2.0000      -0.443429       -12.0663 
 129   2.0000      -0.441472       -12.0131 
 130   2.0000      -0.425656       -11.5827 
 131   2.0000      -0.407429       -11.0867 
 132   2.0000      -0.405480       -11.0337 
 133   2.0000      -0.404971       -11.0198 
 134   2.0000      -0.403499       -10.9798 
 135   2.0000      -0.402772       -10.9600 
 136   2.0000      -0.402386       -10.9495 
 137   2.0000      -0.401682       -10.9303 
 138   2.0000      -0.400767       -10.9054 
 139   2.0000      -0.398995       -10.8572 
 140   2.0000      -0.396934       -10.8011 
 141   2.0000      -0.395812       -10.7706 
 142   2.0000      -0.395251       -10.7553 
 143   2.0000      -0.394970       -10.7477 
 144   2.0000      -0.394488       -10.7346 
 145   2.0000      -0.393804       -10.7159 
 146   2.0000      -0.390751       -10.6329 
 147   2.0000      -0.388788       -10.5795 
 148   2.0000      -0.387102       -10.5336 
 149   2.0000      -0.374658       -10.1950 
 150   2.0000      -0.373960       -10.1760 
 151   2.0000      -0.373584       -10.1657 
 152   2.0000      -0.372663       -10.1407 
 153   2.0000      -0.372305       -10.1309 
 154   2.0000      -0.372023       -10.1232 
 155   2.0000      -0.370566       -10.0836 
 156   2.0000      -0.369807       -10.0630 
 157   2.0000      -0.367232        -9.9929 
 158   2.0000      -0.365428        -9.9438 
 159   2.0000      -0.363451        -9.8900 
 160   2.0000      -0.361031        -9.8241 
 161   2.0000      -0.359629        -9.7860 
 162   2.0000      -0.357153        -9.7186 
 163   2.0000      -0.356117        -9.6904 
 164   2.0000      -0.339681        -9.2432 
 165   2.0000      -0.338696        -9.2164 
 166   2.0000      -0.333224        -9.0675 
 167   2.0000      -0.329811        -8.9746 
 168   2.0000      -0.328206        -8.9309 
 169   2.0000      -0.327395        -8.9089 
 170   2.0000      -0.326199        -8.8763 
 171   2.0000      -0.324922        -8.8416 
 172   2.0000      -0.322309        -8.7705 
 173   2.0000      -0.320825        -8.7301 
 174   2.0000      -0.320017        -8.7081 
 175   2.0000      -0.318190        -8.6584 
 176   2.0000      -0.307065        -8.3557 
 177   2.0000      -0.303845        -8.2680 
 178   2.0000      -0.302470        -8.2306 
 179   2.0000      -0.301225        -8.1967 
 180   2.0000      -0.300714        -8.1828 
 181   2.0000      -0.300220        -8.1694 
 182   2.0000      -0.298924        -8.1341 
 183   2.0000      -0.298350        -8.1185 
 184   2.0000      -0.296923        -8.0797 
 185   2.0000      -0.296454        -8.0669 
 186   2.0000      -0.290339        -7.9005 
 187   2.0000      -0.286540        -7.7971 
 188   2.0000      -0.285910        -7.7800 
[...]
  9 C      5.9861     6.0000     0.0139     3.8917     3.8917    -0.0000
 10 C      5.9951     6.0000     0.0049     3.8543     3.8543    -0.0000
 11 C      5.9955     6.0000     0.0045     3.8156     3.8156    -0.0000
 12 C      5.9970     6.0000     0.0030     3.8264     3.8264    -0.0000
 13 C      5.9951     6.0000     0.0049     3.8958     3.8958     0.0000
 14 C      6.1025     6.0000    -0.1025     3.8264     3.8264    -0.0000
 15 C      6.0020     6.0000    -0.0020     3.8746     3.8746     0.0000
 16 C      6.0025     6.0000    -0.0025     3.9016     3.9016    -0.0000
 17 C      5.9969     6.0000     0.0031     3.8327     3.8327    -0.0000
 18 C      5.9968     6.0000     0.0032     3.8065     3.8065    -0.0000
 19 C      5.9914     6.0000     0.0086     3.8444     3.8444     0.0000
 20 C      5.9929     6.0000     0.0071     3.8708     3.8708    -0.0000
 21 C      6.1051     6.0000    -0.1051     3.8420     3.8420     0.0000
 22 C      5.9975     6.0000     0.0025     3.8760     3.8760     0.0000
 23 C      5.9908     6.0000     0.0092     3.8405     3.8405     0.0000
 24 C      5.9959     6.0000     0.0041     3.8160     3.8160    -0.0000
 25 C      5.9959     6.0000     0.0041     3.8391     3.8391    -0.0000
 26 C      5.9881     6.0000     0.0119     3.8277     3.8277    -0.0000
 27 C      6.0144     6.0000    -0.0144     3.9000     3.9000    -0.0000
 28 C      6.1227     6.0000    -0.1227     3.8240     3.8240     0.0000
 29 C      5.9865     6.0000     0.0135     3.8871     3.8871     0.0000
 30 C      6.0022     6.0000    -0.0022     3.8287     3.8287     0.0000
 31 C      5.9916     6.0000     0.0084     3.8112     3.8112     0.0000
 32 C      5.9914     6.0000     0.0086     3.8576     3.8576    -0.0000
 33 C      5.9882     6.0000     0.0118     3.9019     3.9019     0.0000
 34 C      6.1053     6.0000    -0.1053     3.8187     3.8187     0.0000
 35 C      6.0003     6.0000    -0.0003     3.8867     3.8867    -0.0000
 36 C      6.0004     6.0000    -0.0004     3.8338     3.8338    -0.0000
 37 C      5.9961     6.0000     0.0039     3.8050     3.8050     0.0000
 38 C      5.9930     6.0000     0.0070     3.8126     3.8126    -0.0000
 39 C      5.9912     6.0000     0.0088     3.8611     3.8611    -0.0000
 40 C      5.9865     6.0000     0.0135     3.9027     3.9027     0.0000
 41 C      6.1226     6.0000    -0.1226     3.8462     3.8462     0.0000
 42 C      6.0115     6.0000    -0.0115     3.8802     3.8802     0.0000
 43 C      5.9996     6.0000     0.0004     3.8420     3.8420    -0.0000
 44 C      5.9931     6.0000     0.0069     3.8071     3.8071     0.0000
 45 C      5.9942     6.0000     0.0058     3.8332     3.8332     0.0000
 46 C      5.9827     6.0000     0.0173     3.8929     3.8929    -0.0000
 47 C      6.1012     6.0000    -0.1012     3.8291     3.8291    -0.0000
 48 C      5.9942     6.0000     0.0058     3.8318     3.8318    -0.0000
 49 C      5.9876     6.0000     0.0124     3.8889     3.8889    -0.0000
 50 C      5.9926     6.0000     0.0074     3.8376     3.8376    -0.0000
 51 C      5.9963     6.0000     0.0037     3.8077     3.8077    -0.0000
 52 C      5.9896     6.0000     0.0104     3.8373     3.8373    -0.0000
 53 C      6.0295     6.0000    -0.0295     3.8777     3.8777     0.0000
 54 C      5.9930     6.0000     0.0070     3.8822     3.8822    -0.0000
 55 C      6.1083     6.0000    -0.1083     3.8244     3.8244     0.0000
 56 C      6.0071     6.0000    -0.0071     3.8766     3.8766    -0.0000
 57 C      5.9952     6.0000     0.0048     3.8319     3.8319    -0.0000
 58 H      0.9746     1.0000     0.0254     0.9906     0.9906    -0.0000
 59 H      1.0008     1.0000    -0.0008     0.9789     0.9789    -0.0000
 60 H      1.0014     1.0000    -0.0014     0.9785     0.9785    -0.0000
 61 H      1.0035     1.0000    -0.0035     0.9786     0.9786    -0.0000
 62 H      0.9836     1.0000     0.0164     0.9900     0.9900    -0.0000
 63 H      0.9880     1.0000     0.0120     0.9976     0.9976     0.0000
 64 H      1.0012     1.0000    -0.0012     0.9831     0.9831    -0.0000
 65 H      1.0020     1.0000    -0.0020     0.9786     0.9786     0.0000
 66 H      1.0036     1.0000    -0.0036     0.9782     0.9782    -0.0000
 67 H      0.9913     1.0000     0.0087     0.9948     0.9948    -0.0000
 68 H      0.9991     1.0000     0.0009     1.0052     1.0052    -0.0000
 69 H      1.0012     1.0000    -0.0012     0.9785     0.9785     0.0000
 70 H      0.9984     1.0000     0.0016     0.9787     0.9787     0.0000
 71 H      0.9962     1.0000     0.0038     0.9809     0.9809    -0.0000
 72 H      0.9588     1.0000     0.0412     1.0052     1.0052     0.0000
 73 H      0.9737     1.0000     0.0263     0.9979     0.9979     0.0000
 74 H      1.0045     1.0000    -0.0045     0.9819     0.9819    -0.0000
 75 H      1.0005     1.0000    -0.0005     0.9785     0.9785    -0.0000
 76 H      1.0020     1.0000    -0.0020     0.9787     0.9787    -0.0000
 77 H      0.9816     1.0000     0.0184     0.9917     0.9917     0.0000
 78 H      0.9916     1.0000     0.0084     0.9995     0.9995     0.0000
 79 H      0.9577     1.0000     0.0423     1.0111     1.0111    -0.0000
 80 H      0.9965     1.0000     0.0035     0.9812     0.9812    -0.0000
 81 H      0.9988     1.0000     0.0012     0.9786     0.9786     0.0000
 82 H      1.0014     1.0000    -0.0014     0.9786     0.9786    -0.0000
 83 H      1.0044     1.0000    -0.0044     1.0011     1.0011     0.0000
 84 H      1.0042     1.0000    -0.0042     0.9782     0.9782     0.0000
 85 H      1.0021     1.0000    -0.0021     0.9783     0.9783     0.0000
 86 H      1.0009     1.0000    -0.0009     0.9814     0.9814     0.0000
 87 H      0.9421     1.0000     0.0579     0.9924     0.9924    -0.0000
 88 H      0.9652     1.0000     0.0348     0.9926     0.9926     0.0000
 89 H      0.9826     1.0000     0.0174     0.9981     0.9981    -0.0000
 90 H      1.0031     1.0000    -0.0031     0.9787     0.9787    -0.0000
 91 H      1.0017     1.0000    -0.0017     0.9789     0.9789     0.0000
 92 H      1.0002     1.0000    -0.0002     0.9786     0.9786     0.0000
 93 H      0.9958     1.0000     0.0042     0.9985     0.9985     0.0000
 94 H      0.9789     1.0000     0.0211     0.9913     0.9913    -0.0000
 95 H      1.0026     1.0000    -0.0026     0.9785     0.9785    -0.0000
 96 H      1.0021     1.0000    -0.0021     0.9786     0.9786    -0.0000
 97 H      1.0024     1.0000    -0.0024     0.9823     0.9823     0.0000
 98 H      0.9776     1.0000     0.0224     0.9936     0.9936     0.0000
 99 H      0.9614     1.0000     0.0386     1.0083     1.0083    -0.0000
100 H      1.0015     1.0000    -0.0015     0.9816     0.9816     0.0000
101 H      1.0006     1.0000    -0.0006     0.9784     0.9784     0.0000
102 H      1.0024     1.0000    -0.0024     0.9789     0.9789     0.0000
103 H      0.9829     1.0000     0.0171     1.0154     1.0154    -0.0000
104 H      0.9428     1.0000     0.0572     1.0109     1.0109    -0.0000
105 H      1.0376     1.0000    -0.0376     1.0046     1.0046    -0.0000
106 H      1.0729     1.0000    -0.0729     1.0069     1.0069    -0.0000

  Mayer bond orders larger than 0.100000
B(  0-Ru,  1-P ) :   0.8308 B(  0-Ru,  2-P ) :   0.8165 B(  0-Ru,  3-P ) :   0.7049 
B(  0-Ru,103-H ) :   0.4075 B(  0-Ru,104-H ) :   0.4295 B(  0-Ru,105-H ) :   0.7152 
B(  0-Ru,106-H ) :   0.7582 B(  1-P ,  4-C ) :   0.9176 B(  1-P ,  8-C ) :   0.9139 
B(  1-P , 55-C ) :   0.9172 B(  2-P , 14-C ) :   0.9142 B(  2-P , 21-C ) :   0.9118 
B(  2-P , 28-C ) :   0.9093 B(  3-P , 34-C ) :   0.9087 B(  3-P , 41-C ) :   0.9290 
B(  3-P , 47-C ) :   0.9022 B(  4-C , 15-C ) :   1.3752 B(  4-C , 54-C ) :   1.3731 
B(  5-C ,  6-C ) :   1.3658 B(  5-C , 57-C ) :   1.3730 B(  5-C , 75-H ) :   0.9772 
B(  6-C ,  7-C ) :   1.3971 B(  6-C , 74-H ) :   0.9765 B(  7-C , 55-C ) :   1.3787 
B(  7-C , 73-H ) :   0.9560 B(  8-C ,  9-C ) :   1.3555 B(  8-C , 13-C ) :   1.4137 
B(  9-C , 10-C ) :   1.4142 B(  9-C , 58-H ) :   0.9628 B( 10-C , 11-C ) :   1.3562 
B( 10-C , 59-H ) :   0.9767 B( 11-C , 12-C ) :   1.3887 B( 11-C , 60-H ) :   0.9771 
B( 12-C , 13-C ) :   1.3626 B( 12-C , 61-H ) :   0.9750 B( 13-C , 62-H ) :   0.9594 
B( 14-C , 16-C ) :   1.3992 B( 14-C , 20-C ) :   1.3495 B( 15-C , 26-C ) :   1.3819 
B( 15-C , 79-H ) :   0.9435 B( 16-C , 17-C ) :   1.3802 B( 16-C , 87-H ) :   0.9477 
B( 17-C , 18-C ) :   1.3729 B( 17-C , 86-H ) :   0.9783 B( 18-C , 19-C ) :   1.3629 
B( 18-C , 85-H ) :   0.9768 B( 19-C , 20-C ) :   1.4057 B( 19-C , 84-H ) :   0.9766 
B( 20-C , 83-H ) :   0.9664 B( 21-C , 22-C ) :   1.3625 B( 21-C , 27-C ) :   1.3942 
B( 22-C , 23-C ) :   1.4033 B( 22-C , 88-H ) :   0.9486 B( 23-C , 24-C ) :   1.3622 
B( 23-C , 91-H ) :   0.9770 B( 24-C , 25-C ) :   1.3812 B( 24-C , 92-H ) :   0.9772 
B( 25-C , 27-C ) :   1.3782 B( 25-C , 90-H ) :   0.9755 B( 26-C , 37-C ) :   1.3632 
B( 26-C , 80-H ) :   0.9791 B( 27-C , 89-H ) :   0.9553 B( 28-C , 29-C ) :   1.3870 
B( 28-C , 33-C ) :   1.3545 B( 29-C , 30-C ) :   1.3773 B( 29-C , 94-H ) :   0.9618 
B( 30-C , 31-C ) :   1.3732 B( 30-C , 95-H ) :   0.9754 B( 31-C , 32-C ) :   1.3635 
B( 31-C , 96-H ) :   0.9774 B( 32-C , 33-C ) :   1.4054 B( 32-C , 97-H ) :   0.9765 
B( 33-C , 93-H ) :   0.9602 B( 34-C , 35-C ) :   1.3784 B( 34-C , 40-C ) :   1.3631 
B( 35-C , 36-C ) :   1.3796 B( 35-C , 67-H ) :   0.9643 B( 36-C , 38-C ) :   1.3731 
B( 36-C , 66-H ) :   0.9757 B( 37-C , 48-C ) :   1.3690 B( 37-C , 81-H ) :   0.9773 
B( 38-C , 39-C ) :   1.3646 B( 38-C , 65-H ) :   0.9773 B( 39-C , 40-C ) :   1.4076 
B( 39-C , 64-H ) :   0.9757 B( 40-C , 63-H ) :   0.9586 B( 41-C , 42-C ) :   1.3590 
B( 41-C , 46-C ) :   1.3903 B( 42-C , 43-C ) :   1.3853 B( 42-C , 98-H ) :   0.9595 
B( 43-C , 44-C ) :   1.3706 B( 43-C ,102-H ) :   0.9765 B( 44-C , 45-C ) :   1.3661 
B( 44-C ,101-H ) :   0.9777 B( 45-C , 46-C ) :   1.3890 B( 45-C ,100-H ) :   0.9768 
B( 46-C , 99-H ) :   0.9501 B( 47-C , 49-C ) :   1.3770 B( 47-C , 53-C ) :   1.3697 
B( 48-C , 54-C ) :   1.3856 B( 48-C , 82-H ) :   0.9756 B( 49-C , 50-C ) :   1.3949 
B( 49-C , 68-H ) :   0.9616 B( 50-C , 51-C ) :   1.3652 B( 50-C , 69-H ) :   0.9749 
B( 51-C , 52-C ) :   1.3691 B( 51-C , 70-H ) :   0.9775 B( 52-C , 53-C ) :   1.3786 
B( 52-C , 71-H ) :   0.9784 B( 53-C , 72-H ) :   0.9463 B( 54-C , 78-H ) :   0.9644 
B( 55-C , 56-C ) :   1.3625 B( 56-C , 57-C ) :   1.3809 B( 56-C , 77-H ) :   0.9636 
B( 57-C , 76-H ) :   0.9767 B(103-H ,104-H ) :   0.5067 

-------
TIMINGS
-------

Total SCF time: 0 days 0 hours 25 min 48 sec 

Total time                  ....    1548.509 sec
Sum of individual times     ....    1512.184 sec  ( 97.7%)

SCF preparation             ....       0.499 sec  (  0.0%)
Fock matrix formation       ....    1481.348 sec  ( 95.7%)
  Startup                   ....       0.169 sec  (  0.0% of F)
  Split-RI-J                ....     714.466 sec  ( 48.2% of F)
  XC integration            ....     801.910 sec  ( 54.1% of F)
    XC Preparation          ....       0.000 sec  (  0.0% of XC)
    Basis function eval.    ....     273.039 sec  ( 34.0% of XC)
    Density eval.           ....     307.804 sec  ( 38.4% of XC)
    XC-Functional eval.     ....      17.247 sec  (  2.2% of XC)
    XC-Potential eval.      ....     192.693 sec  ( 24.0% of XC)
Diagonalization             ....       0.000 sec  (  0.0%)
Density matrix formation    ....       1.501 sec  (  0.1%)
Total Energy calculation    ....       0.252 sec  (  0.0%)
Population analysis         ....       0.488 sec  (  0.0%)
Orbital Transformation      ....       1.499 sec  (  0.1%)
Orbital Orthonormalization  ....       0.000 sec  (  0.0%)
DIIS solution               ....      13.979 sec  (  0.9%)
SOSCF solution              ....      12.618 sec  (  0.8%)
Finished LeanSCF after 1548.6 sec

Maximum memory used throughout the entire LEANSCF-calculation: 336.5 MB

-------------------------   --------------------
FINAL SINGLE POINT ENERGY     -3204.672345492329
-------------------------   --------------------


------------------------------------------------------------------------------
                              ORCA PROPERTY CALCULATIONS
------------------------------------------------------------------------------

GBWName                                 ... 1b_def2svp.gbw
Number of atoms                         ...    107
Number of basis functions               ...   1086
Max core memory                         ...   4096 MB

Electric properties:
Dipole moment                           ... YES
Quadrupole moment                       ...  NO
Static polarizability (Dipole/Dipole)   ...  NO
Static polarizability (Dipole/Quad.)    ...  NO
Static polarizability (Quad./Quad.)     ...  NO
Static polarizability (Velocity)        ...  NO
Static hyperpolarizability              ...  NO

Atomic electric properties:
Dipole moment                           ...  NO
Quadrupole moment                       ...  NO
Static polarizability                   ...  NO

Choice of electric origin               ... Center of mass
Position of electric origin             ...     0.000239     0.014460     0.008559

General magnetic properties:
Magnetizability                         ...  NO

EPR properties:
g-Tensor (aka g-matrix)                 ...  NO
Zero-Field splitting spin-orbit         ...  NO
Zero-field splitting spin-spin          ...  NO
Hyperfine couplings                     ...  NO (   0 nuclei)
Quadrupole couplings                    ...  NO (   0 nuclei)
Contact density                         ...  NO (   0 nuclei)

NMR properties:
Chemical shifts                         ...  NO (   0 nuclei)
Spin-rotation constants                 ...  NO (   0 nuclei)
Spin-spin couplings                     ...  NO (   0 nuclei,    0 pairs)

Choice of magnetic origin               ... GIAO
Position of magnetic origin             ...     0.000000     0.000000     0.000000

Properties with geometric perturbations:
SCF Hessian                             ...  NO
IR spectrum                             ...  NO
VCD spectrum                            ...  NO
X-ray spectroscopy properties:
SCF XES/XAS/RIXS spectra                ...  NO

SCF SOC stabilization energy            ...  NO
Diagonal Born-Oppenheimer correction    ...  NO

-------------
DIPOLE MOMENT
-------------

Method             : SCF
Type of density    : Electron Density
Multiplicity       :   1
Irrep              :   0
Energy             : -3204.6723454923285317 Eh
Basis              : AO
                                X                 Y                 Z
Electronic contribution:      0.780552536      30.843227761      19.612142094
Nuclear contribution   :     -0.696993355     -31.360202236     -19.581609678
                        -----------------------------------------
Total Dipole Moment    :      0.083559180      -0.516974475       0.030532416
                        -----------------------------------------
Magnitude (a.u.)       :      0.524573134
Magnitude (Debye)      :      1.333358943



--------------------
Rotational spectrum 
--------------------
 
Rotational constants in cm-1:             0.001678             0.001413             0.001159 
Rotational constants in MHz :            50.290228            42.367262            34.746313 

Dipole components along the rotational axes: 
x,y,z [a.u.] :     0.084794    -0.516732     0.031222 
x,y,z [Debye]:     0.215528    -1.313429     0.079359 

 

Dipole moment calculation done in   0.0 sec 

Maximum memory used throughout the entire PROP-calculation: 177.3 MB

--------------------------------
SUGGESTED CITATIONS FOR THIS RUN
--------------------------------

Below you find a list of papers that are relevant to this ORCA run
We neither can nor want to force you to cite these papers, but we appreciate if you do
You receive ORCA, which is the product of decades of hard work by many enthusiastic individuals, for free
The only thing we kindly ask in return is that you cite our papers,
We deeply appreciate it, if you show your appreciation for ORCA by not just citing the generic ORCA reference.

Please note that relegating all ORCA citations to the supporting information does *not* help us.
SI sections are not indexed - citations you put there will not count into any citation statistics
But we need these citations in order to attract the funding resources that allow us to do what we are doing

Therefore, if you are a happy ORCA user, please consider citing a few of the papers listed below in the main body of your paper

In addition to the list printed below, the program has created the file 1b_def2svp.bibtex that contains the list in bibtex format
You can import this file easily into all common literature databanks and citation aid programs

It goes without saying that in many instances, there are alternative algorithms to achieve similar
results as the ones you have gotten from ORCA. It is, of course, also the case that in some instances
ORCA just re-implements algorithms worked out by others. We are fully aware of that and we are also
fully appreciative of our colleagues work. Hence this citation list should not be read as indicating
that the listed papers, which are focused on our own work, are the only ones worth citing. It simply
meant to make it easier for users to cite ORCA specific papers. It is not a substitute for doing your
own literature research and citing the relevant literature in a scientifically appropriate manner.

List of essential papers. We consider these as the minimum necessary citations

  1. Neese, F.
     Software update: the ORCA program system, version 6.0
     WIRES Comput. Molec. Sci. 2025 15(1), e70019
     doi.org/10.1002/wcms.70019

List of papers to cite with high priority. The work reported in these papers was absolutely
necessary for this run to complete.
Our perspective: the developers of density functionals and basis sets usually get cited in chemistry papers
Good! But without the algorithms to do something with them, the functionals or basis sets would not do anything.
Hence, in our opinion, the algorithm design and method developments papers are equally worthy of getting cited

  1. Neese, F.
     An improvement of the resolution of the identity approximation for the formation of the Coulomb matrix
     J. Comp. Chem. 2003 24(14), 1740-1747
     doi.org/10.1002/jcc.10318
  2. Neese, F.
     The SHARK Integral Generation and Digestion System
     J. Comp. Chem. 2022 44(3), 381
     doi.org/10.1002/jcc.26942

List of suggested additional citations. These are papers that are important in the 'surrounding' of 
of this run, or papers that preceded the highly important papers. If you like your results we are grateful for a citation.

  1. Neese, F.
     The ORCA program system
     WIRES Comput. Molec. Sci. 2012 2(1), 73-78
     doi.org/10.1002/wcms.81
  2. Neese, F.
     Software update: the ORCA program system, version 4.0
     WIRES Comput. Molec. Sci. 2018 8(1), 1-6
     doi.org/10.1002/wcms.1327
  3. Neese, F.; Wennmohs, F.; Becker, U.; Riplinger, C.
     The ORCA quantum chemistry program package
     J. Chem. Phys. 2020 152(22), 224108
     doi.org/10.1063/5.0004608
  4. Neese, F.
     Software update: The ORCA program system—Version 5.0
     WIRES Comput. Molec. Sci. 2022 12(1), e1606
     doi.org/10.1002/wcms.1606

List of optional additional citations

  1. Neese, F.
     Approximate second-order SCF convergence for spin unrestricted wavefunctions
     Chem. Phys. Lett. 2000 325(1-3), 93-98
     doi.org/10.1016/s0009-2614(00)00662-x

Timings for individual modules:

Sum of individual times          ...     1626.441 sec (=  27.107 min)
Startup calculation              ...       48.808 sec (=   0.813 min)   3.0 %
SCF iterations                   ...     1577.249 sec (=  26.287 min)  97.0 %
Property calculations            ...        0.384 sec (=   0.006 min)   0.0 %
                             ****ORCA TERMINATED NORMALLY****
TOTAL RUN TIME: 0 days 0 hours 27 minutes 6 seconds 668 msec
