
                                 *****************
                                 * O   R   C   A *
                                 *****************

                                            #,                                       
                                            ###                                      
                                            ####                                     
                                            #####                                    
                                            ######                                   
                                           ########,                                 
                                     ,,################,,,,,                         
                               ,,#################################,,                 
                          ,,##########################################,,             
                       ,#########################################, ''#####,          
                    ,#############################################,,   '####,        
                  ,##################################################,,,,####,       
                ,###########''''           ''''###############################       
              ,#####''   ,,,,##########,,,,          '''####'''          '####       
            ,##' ,,,,###########################,,,                        '##       
           ' ,,###''''                  '''############,,,                           
         ,,##''                                '''############,,,,        ,,,,,,###''
      ,#''                                            '''#######################'''  
     '                                                          ''''####''''         
             ,#######,   #######,   ,#######,      ##                                
            ,#'     '#,  ##    ##  ,#'     '#,    #''#        ,####,    ,#,          
            ##       ##  ##   ,#'  ##            #'  '#       #'       ,# #          
            ##       ##  #######   ##           ,######,      #####,      #          
            '#,     ,#'  ##    ##  '#,     ,#' ,#      #,     #,   #      #          
             '#######'   ##     ##  '#######'  #'      '#     '####' #    #          



                #########################################################
                #                        -***-                          #
                #          Department of theory and spectroscopy        #
                #                                                       #
                #                      Frank Neese                      #
                #                                                       #
                #     Directorship, Architecture, Infrastructure        #
                #                    SHARK, DRIVERS                     #
                #        Core code/Algorithms in most modules           #
                #                                                       #
                #        Max Planck Institute fuer Kohlenforschung      #
                #                Kaiser Wilhelm Platz 1                 #
                #                 D-45470 Muelheim/Ruhr                 #
                #                      Germany                          #
                #                                                       #
                #                  All rights reserved                  #
                #                        -***-                          #
                #########################################################


                         Program Version 6.1.1  -  RELEASE   -
                                (GIT: $487d211c$)
                          ($2025-11-21 10:33:24 +0100$)


 With contributions from (in alphabetic order):
[Max-Planck-Institut fuer Kohlenforschung]                               
  Daniel Aravena         : Magnetic Suceptibility                        
  Michael Atanasov       : Ab Initio Ligand Field Theory (pilot matlab implementation)
  Alexander A. Auer      : GIAO ZORA, VPT2 properties, NMR spectrum      
  Ute Becker             : All parallelization in ORCA, NUMFREQ, NUMCALC 
  Giovanni Bistoni       : ED, misc. LED, open-shell LED, HFLD           
  Dmytro Bykov           : pre 5.0 version of the SCF Hessian            
  Marcos Casanova-Páez   : Triplet and SCS-CIS(D). UHF-(DLPNO)-IP/EA/STEOM-CCSD. UHF-CVS-IP/STEOM-CCSD   
  Vijay G. Chilkuri      : MRCI spin determinant printing, contributions to CSF-ICE 
  Pauline Colinet        : FMM embedding                                 
  Dipayan Datta          : RHF DLPNO-CCSD density                        
  Achintya Kumar Dutta   : EOM-CC, STEOM-CC                              
  Nicolas Foglia         : Exact transition moments, OPA infrastructure, MCD improvements    
  Dmitry Ganyushin       : Spin-Orbit,Spin-Spin,Magnetic field MRCI      
  Miquel Garcia-Rates    : C-PCM and meta-GGA Hessian, CCSD/C-PCM, Gaussian charge scheme 
  Tiago L. C. Gouveia    : GS-ROHF, GS-ROCIS                             
  Yang Guo               : DLPNO-NEVPT2, F12-NEVPT2, CIM, IAO-localization        
  Andreas Hansen         : Spin unrestricted coupled pair/coupled cluster methods 
  Ingolf Harden          : AUTO-CI MPn and infrastructure                
  Benjamin Helmich-Paris : MC-RPA, TRAH-(SCF,CASSCF), AVAS, COSX integrals, SCF dyn. polar., MC-PDFT, srDFT 
  Lee Huntington         : MR-EOM, pCC                                   
  Robert Izsak           : Overlap fitted RIJCOSX, COSX-SCS-MP3, EOM     
  Riya Kayal             : Wick's Theorem for AUTO-CI, AUTO-CI UHF-CCSDT 
  Emily Kempfer          : AUTO-CI RHF CISDT and CCSDT, approximate NEVPT4
  Christian Kollmar      : KDIIS, OOCD, Brueckner-CCSD(T), CCSD density, CASPT2, CASPT2-K, improved NEVPT2 
  Axel Koslowski         : Symmetry handling                             
  Simone Kossmann        : meta-GGA functionals, TD-DFT gradient, OOMP2, (MP2 Hessian; deprecated post 5.0) 
  Lucas Lang             : DCDCAS, Hyperfine gauge corrections, ICE-SOC+SSC
  Marvin Lechner         : AUTO-CI (C++ implementation), FIC-MRCC        
  Spencer Leger          : CASSCF response                               
  Dagmar Lenk            : GEPOL surface, SMD, ORCA-2-JSON               
  Dimitrios Liakos       : Extrapolation schemes; Compound Job, Property file
  Dimitrios Manganas     : Further ROCIS development; embedding schemes. LFT, Crystal Embedding 
  Dimitrios Pantazis     : SARC Basis sets                               
  Anastasios Papadopoulos: AUTO-CI, single reference methods and gradients 
  Taras Petrenko         : pre 6.0 DFT Hessian and TD-DFT gradient,  ECA, NRVS 
  Petra Pikulova         : Analytic Raman intensities                    
  Peter Pinski           : DLPNO-MP2, DLPNO-MP2 Gradient                 
  Shashank Vittal Rao    : ES-AILFT, MagRelax                            
  Christoph Reimann      : Effective Core Potentials                     
  Marius Retegan         : Local ZFS, SOC                                
  Christoph Riplinger    : Optimizer, TS searches, QM/MM, DLPNO-CCSD(T), (RO)-DLPNO pert. Triples 
  Michael Roemelt        : Original ROCIS implementation, recursive CI coupling coefficients
  Masaaki Saitow         : Open-shell DLPNO-CCSD energy and density      
  Barbara Sandhoefer     : DKH picture change effects                    
  Yorick L. A. Schmerwitz: GMF and freeze-and-release deltaSCF, NEB S-IDPP initial path                    
  Kantharuban Sivalingam : CASSCF convergence/infrastructure, NEVPT2, NEVPT3, NEVPT4(SD), FIC-MRCI and CEPA variants
  Bernardo de Souza      : ESD, SOC TD-DFT                               
  Georgi L. Stoychev     : AutoAux, RI-MP2 NMR, DLPNO-MP2 response, X2C  
  Van Anh Tran           : RI-MP2 g-tensors                              
  Willem Van den Heuvel  : Paramagnetic NMR                              
  Zikuan Wang            : NOTCH, Electric field optimization            
  Frank Wennmohs         : Technical directorship and infrastructure     
  Hang Xu                : AUTO-CI-Response properties                   
                                                                         
[FACCTs GmbH]                                                            
  Markus Bursch, Nicolas Foglia, Miquel Garcia-Rates, Ingolf Harden, Hagen Neugebauer, Anastasios Papadopoulos, 
  Christoph Riplinger, Bernardo de Souza, Georgi L. Stoychev                                                    
                                                                 
  APM, various basis sets, CI-OPT, improved COSX, DLPNO-Multilevel,           
  DOCKER, DRACO, updates on ESD, Fragmentator, GOAT, IRC, LR-CPCM, L-BFGS, MBIS, meta-GGA TD-DFT gradient, ML-optimized integration grids, 
  MM, NACMEs, nearIR, NEB, NEB-TS, NL-DFT gradient (VV10), 2- and 3-layer-ONIOM, interface openCOSMO-RS, QMMM,   
  Crystal-QMMM, RESP, rigid body optimization, SF, symmetry and pop. for TD-DFT, various functionals, SOLVATOR                                   
                                                                         
[Other institutions]                                                     
  V. Asgeirsson          : NEB                                           
  Christoph Bannwarth    : sTDA-DFT, sTD-DFT, PBEh-3c, B97-3c, D3        
  Giovanni Bistoni       : ETS/NOCV, ADLD/ADEX, COVALED                  
  Martin Brehm           : Molecular dynamics                            
  Ronald Cardenas        : ETS/NOCV                                      
  Martina Colucci        : COVALED                                       
  Sebastian Ehlert       : rSCAN, r2SCAN, r2SCAN-3c, D4, dhf basis sets  
  Marvin Friede          : D4 for Fr, Ra, Ac-Lr                          
  Lars Goerigk           : TD-DFT with DH, B97 family of functionals     
  Stefan Grimme          : VdW corrections, initial TS optimization, DFT functionals, gCP, sTDA/sTD-DF 
  Waldemar Hujo          : DFT-NL                                        
  H. Jonsson             : NEB                                           
  Holger Kruse           : gCP                                           
  Marcel Mueller         : wB97X-3c, vDZP basis set                      
  Hagen Neugebauer       : wr2SCAN, Native XTB                           
  Gianluca Regni         : ADLD/ADEX                                     
  Tobias Risthaus        : pre 6.0 range-separated hybrid DFT and stability analysis
  Lukas Wittmann         : regularized MP2, r2SCAN double-hybrids, wr2SCAN        
                                                                         
We gratefully acknowledge several colleagues who have allowed us to      
interface, adapt or use parts of their codes:                            
  Ed Valeev, F. Pavosevic, A. Kumar             : LibInt (2-el integral package), F12 methods 
  Garnet Chan, S. Sharma, J. Yang, R. Olivares  : DMRG                   
  Ulf Ekstrom                                   : XCFun DFT Library      
  Mihaly Kallay                                 : mrcc  (arbitrary order and MRCC methods)
  Frank Weinhold                                : gennbo (NPA and NBO analysis)           
  Simon Mueller                                 : openCOSMO-RS                            
  Christopher J. Cramer and Donald G. Truhlar   : smd solvation model                     
  S Lehtola, MJT Oliveira, MAL Marques          : LibXC Library                           
  Liviu Ungur et al                             : ANISO software                          


 Your calculation uses the libint2 library for the computation of 2-el integrals
 For citations please refer to: http://libint.valeyev.net

 Your ORCA version has been built with support for libXC version: 7.0.0
 For citations please refer to: https://libxc.gitlab.io

 This ORCA versions uses:
   CBLAS   interface :  Fast vector & matrix operations
   LAPACKE interface :  Fast linear algebra routines
   SCALAPACK package :  Parallel linear algebra routines
   Shared memory     :  Shared parallel matrices
   BLAS/LAPACK       :  OpenBLAS 0.3.29  USE64BITINT DYNAMIC_ARCH NO_AFFINITY Cooperlake SINGLE_THREADED
        Core in use  :  Cooperlake
   Copyright (c) 2011-2014, The OpenBLAS Project


  ***********************************
  * Starting time: Thu Jul 16 15:37:28 2026
  * Host name:     c1-37
  * Process ID:    3345264
  * Working dir.:  /cluster/projects/nn14654k/ylvaos/TPhP_bsse/orca/opt1_bp86/bbcp
  ***********************************

================================================================================

----- Orbital basis set information -----
Your calculation utilizes the basis: def2-SVP
   F. Weigend and R. Ahlrichs, Phys. Chem. Chem. Phys. 7, 3297 (2005).

The basis set includes element-specific modifications.

----- AuxJ basis set information -----
Your calculation utilizes the auxiliary basis: def2/J
   H-Rn: F. Weigend, Phys. Chem. Chem. Phys. 8, 1057 (2006).
   Fr-Lr: K. Eichkorn, F. Weigend, O. Treutler, R. Ahlrichs; Theor. Chem. Acc. 97, 119 (1997).

The basis set includes element-specific modifications.

================================================================================
                                        WARNINGS
                       Please study these warnings very carefully!
================================================================================

WARNING: Frozen-Core approximation turned on, but there are no core electrons.
  ===> : Turning off frozen-core approximation


WARNING: ROHF and Conv is not properly working
  ===> : Setting Mode to Direct


WARNING: Found SCFConvIgnored == true
  ===> : Will try to continue after any unconverged SCF -
         no matter how far from convergence the wavefunction might be.

         Please be very careful with your results!


WARNING: TRAH-SCF with ROHF wave function is not implemented yet
  ===> : Turning TRAH off


================================================================================
                                       INPUT FILE
================================================================================
NAME = bbcp_def2tzvp_Compound_1_atom44.inp
|  1> # input to generate an atomic fitting density for Ru
|  2> # this file is used internally by ORCA
|  3> #
|  4> # atomic ground state (Mult=5): 1s2 2s2 2p6 3s2 3p6 4s2 3d10 4p6 5s2 4d6 
|  5> #
|  6> ! ROHF def2-SVP def2/J Conv LeanSCF AODIIS SOSCF NoMulliken NoLoewdin NoMayer NoPrintMOs 
|  7> 
|  8> %output print[p_atomdensfit] 2 end
|  9> 
| 10> %scf
| 11>   guess     HCore
| 12>   maxiter    1000
| 13>   maxdisk  500000
| 14>   diismaxeq     8
| 15>   soscfstart 1e-4
| 16>   lshift  1.000000
| 17>   ignoreconv true
| 18> 
| 19>   hftyp        rohf
| 20>   rohf_case    sahf
| 21>   rohf_numop   2
| 22>   rohf_norb[1] 5
| 23>   rohf_nel[1]  6
| 24> 
| 25> end
| 26> 
| 27> %basis
| 28>   NewECP 44
| 29>     N_core 28
| 30>     lmax f
| 31>     s 4
| 32>       1      11.1052693000    209.8229712000  2
| 33>       2       5.4147454000     30.6547264000  2
| 34>       3      11.3600000000     28.3406163000  2
| 35>       4       5.6800000000      4.9446292000  2
| 36>     p 4
| 37>       1       9.7712707000    146.3361823000  2
| 38>       2       5.0739908000     24.1278772000  2
| 39>       3      11.3600000000     28.3406163000  2
| 40>       4       5.6800000000      4.9446292000  2
| 41>     d 4
| 42>       1       7.6714231000     67.5158967000  2
| 43>       2       4.1365647000      9.8701041000  2
| 44>       3      11.3600000000     28.3406163000  2
| 45>       4       5.6800000000      4.9446292000  2
| 46>     f 2
| 47>       1      11.3600000000    -28.3406163000  2
| 48>       2       5.6800000000     -4.9446292000  2
| 49>   end
| 50>   NewGTO 44
| 51>     s 2 
| 52>      1      16.0000000000     -1.5737642279
| 53>      2      13.9105816940      2.5589062345
| 54>     s 1 
| 55>      1       4.7967971407      1.0000000000
| 56>     s 1 
| 57>      1       1.1555425594      1.0000000000
| 58>     s 1 
| 59>      1       0.5245574118      1.0000000000
| 60>     s 1 
| 61>      1       0.1073457265      1.0000000000
| 62>     s 1 
| 63>      1       0.0394327602      1.0000000000
| 64>     p 4 
| 65>      1      11.1872086710      0.0614129072
| 66>      2       6.2477688734     -0.2622856795
| 67>      3       1.6279472859      0.5523344774
| 68>      4       0.7932649354      0.5793783366
| 69>     p 1 
| 70>      1       0.3670727686      1.0000000000
| 71>     p 1 
| 72>      1       0.1150000000      1.0000000000
| 73>     p 1 
| 74>      1       0.0370000000      1.0000000000
| 75>     d 3 
| 76>      1       5.7341846619     -0.0576319015
| 77>      2       2.2483686294      0.3562966266
| 78>      3       0.9837697836      0.7306439889
| 79>     d 1 
| 80>      1       0.4037944558      1.0000000000
| 81>     d 1 
| 82>      1       0.1497861817      1.0000000000
| 83>   end
| 84>   NewAuxGTO 44
| 85>     S 1
| 86>      1 1310.72 1.0
| 87>     S 1
| 88>      1  655.36 1.0
| 89>     S 1
| 90>      1  327.68 1.0
| 91>     S 1
| 92>      1  163.84 1.0
| 93>     S 1
| 94>      1   81.82 1.0
| 95>     S 1
| 96>      1   40.96 1.0
| 97>     S 1
| 98>      1   20.48 1.0
| 99>     S 1
|100>      1   10.24 1.0
|101>     S 1
|102>      1    5.12 1.0
|103>     S 1
|104>      1    2.56 1.0
|105>     S 1
|106>      1    1.28 1.0
|107>     S 1
|108>      1    0.64 1.0
|109>     S 1
|110>      1    0.32 1.0
|111>     S 1
|112>      1    0.16 1.0
|113>     S 1
|114>      1    0.08 1.0
|115>     S 1
|116>      1    0.04 1.0
|117>     S 1
|118>      1    0.02 1.0
|119>     S 1
|120>      1    0.01 1.0
|121>   end
|122> end
|123> 
|124> * xyz 0 5
|125> 44  0.0 0.0 0.0
|126> *
|127> 
|128> 
|129>                          ****END OF INPUT****
================================================================================

                       ****************************
                       * Single Point Calculation *
                       ****************************

---------------------------------
CARTESIAN COORDINATES (ANGSTROEM)
---------------------------------
  Ru     0.000000    0.000000    0.000000

----------------------------
CARTESIAN COORDINATES (A.U.)
----------------------------
  NO LB      ZA    FRAG     MASS         X           Y           Z
   0 Ru   16.0000*   0   101.070    0.000000    0.000000    0.000000
* core charge reduced due to ECP

--------------------------------
INTERNAL COORDINATES (ANGSTROEM)
--------------------------------
 Ru     0   0   0     0.000000000000     0.00000000     0.00000000

---------------------------
INTERNAL COORDINATES (A.U.)
---------------------------
 Ru     0   0   0     0.000000000000     0.00000000     0.00000000

---------------------
BASIS SET INFORMATION
---------------------
There are 1 groups of distinct atoms

 Group   1 Type Ru  : 7s7p5d contracted to 6s4p3d pattern {211111/4111/311}

Atom   0Ru   basis set group =>   1
---------------------------------
AUXILIARY/J BASIS SET INFORMATION
---------------------------------
There are 1 groups of distinct atoms

 Group   1 Type Ru  : 18s contracted to 18s pattern {111111111111111111}

Atom   0Ru   basis set group =>   1
-------------------------
ECP PARAMETER INFORMATION
-------------------------

 Group 1, Type Ru ECP (replacing 28 core electrons, lmax=3)

Atom   0Ru   ECP group =>   1

------------------------------------------------------------------------------
                             ORCA STARTUP CALCULATIONS
------------------------------------------------------------------------------
------------------------------------------------------------------------------
                   ___                                                        
                  /   \      - P O W E R E D   B Y -                         
                 /     \                                                     
                 |  |  |   _    _      __       _____    __    __             
                 |  |  |  | |  | |    /  \     |  _  \  |  |  /  |          
                  \  \/   | |  | |   /    \    | | | |  |  | /  /          
                 / \  \   | |__| |  /  /\  \   | |_| |  |  |/  /          
                |  |  |   |  __  | /  /__\  \  |    /   |      \           
                |  |  |   | |  | | |   __   |  |    \   |  |\   \          
                \     /   | |  | | |  |  |  |  | |\  \  |  | \   \       
                 \___/    |_|  |_| |__|  |__|  |_| \__\ |__|  \__/        
                                                                              
                      - O R C A' S   B I G   F R I E N D -                    
                                      &                                       
                       - I N T E G R A L  F E E D E R -                       
                                                                              
 v1 FN, 2020, v2 2021, v3 2022-2024                                           
------------------------------------------------------------------------------


----------------------
SHARK INTEGRAL PACKAGE
----------------------

Number of atoms                             ...      1
Number of basis functions                   ...     33
Number of shells                            ...     13
Maximum angular momentum                    ...      2
Integral batch strategy                     ... SHARK/LIBINT Hybrid
RI-J (if used) integral strategy            ... SPLIT-RIJ (Revised 2003 algorithm where possible)
Printlevel                                  ...      1
Contraction scheme used                     ... SEGMENTED contraction
Prescreening option                         ... SCHWARTZ
   Thresh                                   ... 1.000e-10
   Tcut                                     ... 1.000e-11
   Tpresel                                  ... 1.000e-11 
Coulomb Range Separation                    ... NOT USED
Exchange Range Separation                   ... NOT USED
Multipole approximations                    ... NOT USED
Finite Nucleus Model                        ... NOT USED
CABS basis                                  ... NOT available
Auxiliary Coulomb fitting basis             ... AVAILABLE
   # of basis functions in Aux-J            ...     18
   # of shells in Aux-J                     ...     18
   Maximum angular momentum in Aux-J        ...      0
Auxiliary J/K fitting basis                 ... NOT available
Auxiliary Correlation fitting basis         ... NOT available
Auxiliary 'external' fitting basis          ... NOT available

Checking pre-screening integrals            ... done (  0.0 sec) Dimension = 13
   => SHARK Basis and OBASIS are compatible. Storing Pre-screening
Shell pair information
Shell pair cut-off parameter TPreSel        ...   1.0e-11
Total number of shell pairs                 ...        91
Shell pairs after pre-screening             ...        91
Total number of primitive shell pairs       ...       200
Primitive shell pairs kept                  ...       200
          la=0 lb=0:     21 shell pairs
          la=1 lb=0:     24 shell pairs
          la=1 lb=1:     10 shell pairs
          la=2 lb=0:     18 shell pairs
          la=2 lb=1:     12 shell pairs
          la=2 lb=2:      6 shell pairs

Checking whether 4 symmetric matrices of dimension 33 fit in memory
:Max Core in MB      =   4096.00
 MB in use           =      1.27
 MB left             =   4094.73
 MB needed           =      0.02
 Data fit in memory  = YES
Calculating RI/J V-Matrix + Cholesky decomp.... done (  0.0 sec)
Calculating Nuclear repulsion               ... done (  0.0 sec) ENN=      0.000000000000 Eh

Diagonalization of the overlap matrix:
Smallest eigenvalue                        ... 1.927e-02
Time for diagonalization                   ...    0.000 sec
Threshold for overlap eigenvalues          ... 1.000e-07
Number of eigenvalues below threshold      ... 0
Time for construction of square roots      ...    0.001 sec
Total time needed                          ...    0.002 sec

-------------------
DFT GRID GENERATION
-------------------

General Integration Accuracy     IntAcc      ... 4.388
Radial Grid Type                 RadialGrid  ... OptM3 with GC (2021)
Angular Grid (max. ang.)         AngularGrid ... 4 (Lebedev-302)
Angular grid pruning method      GridPruning ... 4 (adaptive)
Weight generation scheme         WeightScheme... mBecke (2022)
Basis function cutoff            BFCut       ... 1.0000e-10
Integration weight cutoff        WCut        ... 1.0000e-14
Partially contracted basis set               ... off
Rotationally invariant grid construction     ... off
Angular grids for H and He will be reduced by one unit

Total number of grid points                  ...    11810
Total number of batches                      ...      185
Average number of points per batch           ...       63
Average number of grid points per atom       ...    11810
Grids setup in   0.2 sec
Initializing property integral containers    ... done (  0.0 sec)

SHARK setup successfully completed in   0.3 seconds

Maximum memory used throughout the entire STARTUP-calculation: 6.4 MB
-------------------------------------------------------------------------------
                                 ORCA GUESS
                   Start orbitals & Density for SCF / CASSCF
-------------------------------------------------------------------------------

------------
SCF SETTINGS
------------
Hamiltonian:
 Ab initio Hamiltonian  Method          .... Hartree-Fock(GTOs)


General Settings:
 Integral files         IntName         .... bbcp_def2tzvp_Compound_1_atom44
 Hartree-Fock type      HFTyp           .... ROHF
 Total Charge           Charge          ....    0
 Multiplicity           Mult            ....    5
 Number of Electrons    NEL             ....   16
 Basis Dimension        Dim             ....   33
 Nuclear Repulsion      ENuc            ....      0.0000000000 Eh

Convergence Acceleration:
 AO-DIIS                CNVDIIS         .... on
   Start iteration      DIISMaxIt       ....    12
   Startup error        DIISStart       ....  0.200000
   # of expansion vecs  DIISMaxEq       ....     8
   Bias factor          DIISBfac        ....   1.050
   Max. coefficient     DIISMaxC        ....  10.000
 MO-DIIS                CNVKDIIS        .... off
 Trust-Rad. Augm. Hess. CNVTRAH         .... off
 SOSCF                 CNVSOSCF           .... on
   Start iteration     SOSCFMaxIt         ....   150
   Startup grad/error  SOSCFStart         ....  0.000100
   Hessian update      SOSCFHessUp        .... L-BFGS
   Autom. constraints  SOSCFAutoConstrain .... off
 Level Shifting         CNVShift        .... on
   Level shift para.    LevelShift      ....    1.0000
   Turn off err/grad.   ShiftErr        ....    0.0010
 Zerner damping         CNVZerner       .... off
 Static damping         CNVDamp         .... on
   Fraction old density DampFac         ....    0.7000
   Max. Damping (<1)    DampMax         ....    0.9800
   Min. Damping (>=0)   DampMin         ....    0.0000
   Turn off err/grad.   DampErr         ....    0.1000

SCF Procedure:
 Maximum # iterations   MaxIter         ....  1000
 SCF integral mode      SCFMode         .... Direct
   Integral package                     .... SHARK and LIBINT hybrid scheme
 Reset frequency        DirectResetFreq ....    20
 Integral Threshold     Thresh          ....  1.000e-10 Eh
 Primitive CutOff       TCut            ....  1.000e-11 Eh

Convergence Tolerance:
 Convergence Check Mode ConvCheckMode   .... Total+1el-Energy
 Convergence forced     ConvForced      .... -1
 Energy Change          TolE            ....  1.000e-06 Eh
 1-El. energy change                    ....  1.000e-03 Eh
 Orbital Gradient       TolG            ....  5.000e-05
 Orbital Rotation angle TolX            ....  5.000e-05
 DIIS Error             TolErr          ....  1.000e-06


--------------------
INITIAL GUESS: HCORE
--------------------

Orthogonalizing HCORE                      ... done
Diagonalizing the Hamiltonian (no sym.)    ... done
Back transforming and storing orbitals     ... done
AVERAGE-CONFIGURATION (SAHF) CASE FOUND

-------------------
FINAL ROHF SETTINGS
-------------------
Number of operators             ... 2
  operator   0:   5 orbitals  10 electrons n(mue)= 2.000
  operator   1:   5 orbitals   6 electrons n(mue)= 1.200
Vector coupling coefficients a and b (Zerner convention):
   1.000    1.000           1.000    1.000 
   1.000    0.972           1.000    1.389 


   => ROHF data were saved in the ROHF file

Making the density                         ... done

                      -----------------
                      INTIAL GUESS DONE 
                      -----------------

             **** ENERGY FILE WAS UPDATED (bbcp_def2tzvp_Compound_1_atom44.en.tmp) ****
Finished Guess after   0.0 sec
Maximum memory used throughout the entire GUESS-calculation: 3.7 MB

-------------------------------------------------------------------------------------------
                                      ORCA LEAN-SCF
                              memory conserving SCF solver
-------------------------------------------------------------------------------------------

----------------------------------------D-I-I-S--------------------------------------------
Iteration    Energy (Eh)           Delta-E    RMSDP     MaxDP     DIISErr   Damp  Time(sec)
-------------------------------------------------------------------------------------------
               ***  Starting incremental Fock matrix formation  ***
    1    -85.7850831526743036     0.00e+00  1.33e-01  2.44e+00  1.02e+00  0.700   0.1
    2    -88.7058042504318394    -2.92e+00  8.99e-02  1.71e+00  3.96e-01  0.700   0.0
    3    -89.5449996501199195    -8.39e-01  6.38e-02  1.15e+00  2.18e-01  0.700   0.0
                               ***Turning on AO-DIIS***
    4    -90.8397996732856967    -1.29e+00  4.43e-02  7.95e-01  1.15e-01  0.700   0.0
    5    -91.7902708224729054    -9.50e-01  3.11e-02  5.50e-01  3.92e-02  0.700   0.0
    6    -92.4660108578689943    -6.76e-01  7.31e-02  1.29e+00  1.56e-02  0.000   0.0
    7    -94.0597490871493846    -1.59e+00  8.76e-04  1.64e-02  4.68e-02  0.000   0.0
    8    -94.0540813055581850     5.67e-03  2.01e-05  3.45e-04  5.27e-02  0.000   0.0
    9    -94.0542192249461806    -1.38e-04  6.29e-04  1.44e-02  5.26e-02  0.000   0.0
   10    -94.0535507576877876     6.68e-04  8.74e-04  1.77e-02  5.34e-02  0.000   0.0
   11    -94.0594470737520538    -5.90e-03  3.00e-04  7.08e-03  4.89e-02  0.000   0.0
   12    -94.0585265728361435     9.21e-04  3.45e-05  4.63e-04  4.98e-02  0.000   0.0
   13    -94.0588023079509696    -2.76e-04  1.00e-03  2.40e-02  4.94e-02  0.000   0.0
   14    -94.0564879701952350     2.31e-03  5.73e-03  7.24e-02  5.17e-02  0.000   0.0
   15    -94.0863274381947861    -2.98e-02  1.08e-03  1.49e-02  1.43e-02  0.000   0.0
   16    -94.0880650171536956    -1.74e-03  8.06e-04  6.82e-03  5.71e-03  0.000   0.0
   17    -94.0886975303934179    -6.33e-04  2.22e-04  2.33e-03  2.78e-03  0.000   0.0
   18    -94.0887540125104351    -5.65e-05  1.41e-04  2.68e-03  1.31e-03  0.000   0.0
   19    -94.0887633264685093    -9.31e-06  6.64e-05  1.41e-03  2.56e-04  0.000   0.0
   20    -94.0887646312823023    -1.30e-06  3.34e-05  6.60e-04  2.15e-04  0.000   0.0
               *** Restarting incremental Fock matrix formation ***
                             ****Resetting DIIS****
   21    -94.0887652323763177    -6.01e-07  1.83e-05  3.08e-04  2.07e-04  0.000   0.0
                 **** Energy Check signals convergence ****

               *****************************************************
               *                     SUCCESS                       *
               *           SCF CONVERGED AFTER  21 CYCLES          *
               *****************************************************

             **** ENERGY FILE WAS UPDATED (bbcp_def2tzvp_Compound_1_atom44.en.tmp) ****

----------------
TOTAL SCF ENERGY
----------------

Total Energy       :        -94.08876561143563 Eh           -2560.28547 eV

Components:
Nuclear Repulsion  :          0.00000000000000 Eh               0.00000 eV
Electronic Energy  :        -94.08876561143563 Eh           -2560.28547 eV
One Electron Energy:       -164.81188381665220 Eh           -4484.75936 eV
Two Electron Energy:         70.72311820521657 Eh            1924.47388 eV

Virial components:
Potential Energy   :       -128.51264734862440 Eh           -3497.00692 eV
Kinetic Energy     :         34.42388173718876 Eh             936.72144 eV
Virial Ratio       :          3.73324101941095

---------------
SCF CONVERGENCE
---------------

  Last Energy change         ...    6.0109e-07  Tolerance :   1.0000e-06
  Last MAX-Density change    ...    3.0824e-04  Tolerance :   1.0000e-05
  Last RMS-Density change    ...    1.8326e-05  Tolerance :   1.0000e-06
  Last DIIS Error            ...    2.0653e-04  Tolerance :   1.0000e-06


----------------
ORBITAL ENERGIES
----------------

  NO   OCC          E(Eh)            E(eV) 
   0   2.0000      -3.516583       -95.6911 
   1   2.0000      -2.212439       -60.2035 
   2   2.0000      -2.208755       -60.1033 
   3   2.0000      -2.202673       -59.9378 
   4   2.0000      -0.370616       -10.0850 
   5   1.2000      -0.436856       -11.8874 
   6   1.2000      -0.435831       -11.8596 
   7   1.2000      -0.421383       -11.4664 
   8   1.2000      -0.412652       -11.2288 
   9   1.2000      -0.246209        -6.6997 
  10   0.0000       0.011648         0.3170 
  11   0.0000       0.013847         0.3768 
  12   0.0000       0.017348         0.4721 
  13   0.0000       0.161084         4.3833 
  14   0.0000       0.219076         5.9614 
  15   0.0000       0.223530         6.0826 
  16   0.0000       0.230749         6.2790 
  17   0.0000       0.449452        12.2302 
  18   0.0000       0.449812        12.2400 
  19   0.0000       0.460622        12.5342 
  20   0.0000       0.455304        12.3894 
*Only the first 10 virtual orbitals were printed.

Warning: MO coefficients are modified such that the real solid harmonic m components
have the correct order within each shell (0, +1, -1, +2, -2, ...) and all s orbitals
come before all p orbitals etc. (with increasing orbital energy within each block of given angular momentum).

CleanUpVectors: The p-vectors have cracked symmetry
CleanUpVectors: The p-vectors have cracked symmetry
CleanUpVectors: The p-vectors have cracked symmetry
CleanUpVectors: The d-vectors have cracked symmetry at i=4
CleanUpVectors: The d-vectors have cracked symmetry at i=5
CleanUpVectors: The d-vectors have cracked symmetry at i=6
CleanUpVectors: The d-vectors have cracked symmetry at i=7
CleanUpVectors: The d-vectors have cracked symmetry at i=8
CleanUpVectors: The p-vectors have cracked symmetry
CleanUpVectors: The p-vectors have cracked symmetry
CleanUpVectors: The p-vectors have cracked symmetry
CleanUpVectors: The p-vectors have cracked symmetry
CleanUpVectors: The p-vectors have cracked symmetry
CleanUpVectors: The p-vectors have cracked symmetry
CleanUpVectors: The d-vectors have cracked symmetry at i=17
CleanUpVectors: The d-vectors have cracked symmetry at i=18
CleanUpVectors: The d-vectors have cracked symmetry at i=19
CleanUpVectors: The d-vectors have cracked symmetry at i=20
CleanUpVectors: The d-vectors have cracked symmetry at i=21
CleanUpVectors: The p-vectors have cracked symmetry
CleanUpVectors: The p-vectors have cracked symmetry
CleanUpVectors: The p-vectors have cracked symmetry
CleanUpVectors: The d-vectors have cracked symmetry at i=26
CleanUpVectors: The d-vectors have cracked symmetry at i=27
CleanUpVectors: The d-vectors have cracked symmetry at i=28
--------------------------
ATOM BASIS FOR ELEMENT Ru
--------------------------
 NewGTO Ru
 S 7
    1         16.000000000000        -0.243564520258
    2         13.910581694000         0.396030585994
    3          4.796797140700        -0.651900472587
    4          1.155542559400         0.848401984452
    5          0.524557411800         0.453026925098
    6          0.107345726500         0.015972153240
    7          0.039432760200        -0.003960033162
 P 19
    1         11.187208671000        -0.042445428488
    2          6.247768873400         0.181278310378
    3          1.627947285900        -0.381745053781
    4          0.793264935400        -0.400436372008
    5         11.187208671000         0.025458456535
    6          6.247768873400        -0.108729400314
    7          1.627947285900         0.228967881948
    8          0.793264935400         0.240178797460
    9         11.187208671000         0.018165873895
   10          6.247768873400        -0.077583830427
   11          1.627947285900         0.163379962318
   12          0.793264935400         0.171379507662
   13          0.367072768600        -0.141773873836
   14          0.367072768600         0.085034929166
   15          0.367072768600         0.060676647767
   16          0.115000000000        -0.008102076397
   17          0.115000000000         0.004859565969
   18          0.115000000000         0.003467541814
   19          0.037000000000         0.000651187692
 D 19
    1         16.000000000000         0.000036631277
    2         13.910581694000        -0.000068508026
    3          4.796797140700         0.000352307723
    4          1.155542559400        -0.003016585289
    5          0.524557411800        -0.000170133418
    6          0.107345726500         0.033801843203
    7          0.039432760200        -0.021999093855
    8          5.734184661900        -0.007028791644
    9          2.248368629400         0.043453967105
   10          0.983769783600         0.089109403482
   11          5.734184661900        -0.005621123064
   12          2.248368629400         0.034751363969
   13          0.983769783600         0.071263305050
   14          5.734184661900         0.018335548205
   15          2.248368629400        -0.113355516690
   16          0.983769783600        -0.232453862021
   17          5.734184661900        -0.026079165365
   18          2.248368629400         0.161228736208
   19          0.983769783600         0.330625658942
 D 19
    1          5.734184661900        -0.021557567006
    2          2.248368629400         0.133274943250
    3          0.983769783600         0.273301875142
    4          5.734184661900        -0.016264691821
    5          2.248368629400         0.100552900001
    6          0.983769783600         0.206200021183
    7          5.734184661900         0.009501569594
    8          2.248368629400        -0.058741375967
    9          0.983769783600        -0.120458713458
   10          5.734184661900         0.016019738473
   11          2.248368629400        -0.099038529503
   12          0.983769783600        -0.203094558995
   13          5.734184661900         0.007651944650
   14          2.248368629400        -0.047306474276
   15          0.983769783600        -0.097009593932
   16          0.403794455800         0.256696704049
   17          0.403794455800         0.193671798941
   18          0.403794455800        -0.113139928889
   19          0.403794455800        -0.190755017240
 P 19
    1         11.187208671000        -0.002975907935
    2          6.247768873400         0.012709674080
    3          1.627947285900        -0.026764675846
    4          0.793264935400        -0.028075150123
    5         11.187208671000         0.000270790454
    6          6.247768873400        -0.001156507020
    7          1.627947285900         0.002435431098
    8          0.793264935400         0.002554676697
    9         11.187208671000        -0.007332848131
   10          6.247768873400         0.031317537997
   11          1.627947285900        -0.065950058791
   12          0.793264935400        -0.069179160318
   13          0.367072768600         0.006975507323
   14          0.367072768600        -0.000634730925
   15          0.367072768600         0.017188144579
   16          0.115000000000        -0.017871165072
   17          0.115000000000         0.001626172924
   18          0.115000000000        -0.044035817731
   19          0.037000000000         0.387357517924
 P 19
    1         11.187208671000        -0.005442153396
    2          6.247768873400         0.023242653157
    3          1.627947285900        -0.048945557033
    4          0.793264935400        -0.051342070029
    5         11.187208671000         0.000495204563
    6          6.247768873400        -0.002114947351
    7          1.627947285900         0.004453763325
    8          0.793264935400         0.004671832182
    9         11.187208671000        -0.013409851795
   10          6.247768873400         0.057271545189
   11          1.627947285900        -0.120605322572
   12          0.793264935400        -0.126510500495
   13          0.367072768600        -0.125600517436
   14          0.367072768600         0.011428922503
   15          0.367072768600        -0.309488579532
   16          0.115000000000         0.621811982799
   17          0.115000000000        -0.056581303228
   18          0.115000000000         1.532188809573
   19          0.037000000000        -0.379432814569
 D 19
    1         16.000000000000         0.000033655872
    2         13.910581694000        -0.000062943405
    3          4.796797140700         0.000323665526
    4          1.155542559400        -0.003202099435
    5          0.524557411800         0.001609349551
    6          0.107345726500         0.028075147480
    7          0.039432760200        -0.010268330590
    8          5.734184661900        -0.003116191614
    9          2.248368629400         0.019265173122
   10          0.983769783600         0.039506360392
   11          5.734184661900        -0.002642932638
   12          2.248368629400         0.016339353011
   13          0.983769783600         0.033506491975
   14          5.734184661900         0.008236830034
   15          2.248368629400        -0.050922400243
   16          0.983769783600        -0.104424636273
   17          5.734184661900        -0.011799322100
   18          2.248368629400         0.072946728304
   19          0.983769783600         0.149589091129
 P 19
    1         11.187208671000        -0.032578124304
    2          6.247768873400         0.139136475694
    3          1.627947285900        -0.293000642415
    4          0.793264935400        -0.307346783102
    5         11.187208671000         0.002964421370
    6          6.247768873400        -0.012660616616
    7          1.627947285900         0.026661368151
    8          0.793264935400         0.027966784192
    9         11.187208671000        -0.080274807943
   10          6.247768873400         0.342842140326
   11          1.627947285900        -0.721974355476
   12          0.793264935400        -0.757324263212
   13          0.367072768600         0.850535386407
   14          0.367072768600        -0.077393813460
   15          0.367072768600         2.095779491640
   16          0.115000000000        -0.505841781673
   17          0.115000000000         0.046028683952
   18          0.115000000000        -1.246430012188
   19          0.037000000000         0.170592906444
 D 19
    1          5.734184661900        -0.036786806298
    2          2.248368629400         0.227426384457
    3          0.983769783600         0.466374667385
    4          5.734184661900         0.014671534755
    5          2.248368629400        -0.090703554878
    6          0.983769783600        -0.186002342419
    7          5.734184661900        -0.043244235241
    8          2.248368629400         0.267348026619
    9          0.983769783600         0.548240465977
   10          5.734184661900        -0.023557208957
   11          2.248368629400         0.145637292283
   12          0.983769783600         0.298652875784
   13          5.734184661900         0.030562477599
   14          2.248368629400        -0.188945833569
   15          0.983769783600        -0.387464060052
   16          0.403794455800        -0.861587100631
   17          0.403794455800         0.343623335748
   18          0.403794455800        -1.012827124978
   19          0.403794455800        -0.551735510818
 end
-------------------------------------------
RADIAL EXPECTATION VALUES <R**-3> TO <R**3>
-------------------------------------------
   0 :     0.000022     1.233061     1.056504     1.043713     1.200362     1.521006
   1 :     1.294447     1.057266     0.971879     1.149990     1.477812     2.122404
   2 :     1.293121     1.056372     0.971380     1.150862     1.480546     2.129637
   3 :     1.290993     1.054937     0.970577     1.152259     1.484924     2.141214
   4 :     0.645673     0.624641     0.721985     1.668723     3.359025    40.455064
   5 :     0.662304     0.637858     0.731439     1.636495     3.209730    37.408510
   6 :     0.662697     0.638072     0.731609     1.635802     3.206125    37.432613
   7 :     0.658358     0.634687     0.729231     1.643597     3.241631    38.125087
   8 :     0.655848     0.632715     0.727834     1.648261     3.263064    38.546271
   9 :     0.000824     0.166394     0.347973     3.478540    13.976823    63.853841
  10 :     0.023687     0.053499     0.204665     5.580042    34.317588   228.800180
  11 :     0.023335     0.052968     0.203772     5.598128    34.510192   230.474882
  12 :     0.022726     0.052071     0.202284     5.628152    34.830110   233.258595
  13 :     0.000120     0.113999     0.264490     5.080105    30.299855   197.886504
  14 :     0.090608     0.129572     0.301076     4.397766    24.583242   164.401852
  15 :     0.091125     0.130118     0.301855     4.381870    24.410072   162.874823
  16 :     0.091919     0.130975     0.303111     4.355635    24.123181   160.339362
  17 :     0.149187     0.183251     0.354919     3.449066    13.115857   263.991582
  18 :     0.149349     0.183368     0.355009     3.448763    13.114575   263.974003
  19 :     0.164221     0.195594     0.364136     3.413965    12.943107   260.367210
  20 :     0.151338     0.185104     0.356343     3.444155    13.094727   263.628390
  21 :     0.152548     0.186160     0.357157     3.441314    13.082374   263.410298
  22 :     0.552957     0.490036     0.591171     2.420776     8.452182    41.385803
  23 :     0.554118     0.490915     0.591784     2.417714     8.430013    41.230898
  24 :     0.556061     0.492390     0.592819     2.412527     8.392608    40.971069
  25 :     0.003832     0.753690     0.734848     2.005730     6.106195    27.468736
  26 :     0.848292     0.688884     0.709050     1.973021     5.166966    83.596112
  27 :     0.849615     0.688870     0.709064     1.972869     5.165421    83.642291
  28 :     0.851964     0.690520     0.710108     1.969682     5.149764    83.295430
  29 :     0.848846     0.690268     0.709619     1.974810     5.185868    84.067395
  30 :     0.853265     0.691435     0.710690     1.967858     5.140683    83.092337
  31 :     0.000000     5.596849     2.093081     0.619129     0.680224     1.848444
  32 :     0.000000    56.363631     5.982519     0.234895     0.105996     0.190247
Making the total density                ... o.k.
Making exponents                        ... done
Making rho(0)                           ... done (         0.000358762)
Integral calculation                    ... Solving the equation system             ... done
atomic density will be written to file bbcp_def2tzvp_Compound_1_atom44.adf

-------
TIMINGS
-------

Total SCF time: 0 days 0 hours 0 min 0 sec 

Total time                  ....       0.719 sec
Sum of individual times     ....       0.666 sec  ( 92.6%)

SCF preparation             ....       0.056 sec  (  7.8%)
Fock matrix formation       ....       0.349 sec  ( 48.5%)
  Startup                   ....       0.005 sec  (  1.4% of F)
  Coulomb+Exchange Fock     ....       0.257 sec  ( 73.6% of F)
Diagonalization             ....       0.000 sec  (  0.0%)
Density matrix formation    ....       0.074 sec  ( 10.2%)
Total Energy calculation    ....       0.010 sec  (  1.4%)
Population analysis         ....       0.000 sec  (  0.0%)
Orbital Transformation      ....       0.008 sec  (  1.1%)
Orbital Orthonormalization  ....       0.000 sec  (  0.0%)
DIIS solution               ....       0.170 sec  ( 23.6%)
SOSCF solution              ....       0.000 sec  (  0.0%)
Finished LeanSCF after   0.8 sec

Maximum memory used throughout the entire LEANSCF-calculation: 5.9 MB

-------------------------   --------------------
FINAL SINGLE POINT ENERGY       -94.088765611436
-------------------------   --------------------


------------------------------------------------------------------------------
                              ORCA PROPERTY CALCULATIONS
------------------------------------------------------------------------------

GBWName                                 ... bbcp_def2tzvp_Compound_1_atom44.gbw
Number of atoms                         ...      1
Number of basis functions               ...     33
Max core memory                         ...   4096 MB

Electric properties:
Dipole moment                           ... YES
Quadrupole moment                       ...  NO
Static polarizability (Dipole/Dipole)   ...  NO
Static polarizability (Dipole/Quad.)    ...  NO
Static polarizability (Quad./Quad.)     ...  NO
Static polarizability (Velocity)        ...  NO
Static hyperpolarizability              ...  NO

Atomic electric properties:
Dipole moment                           ...  NO
Quadrupole moment                       ...  NO
Static polarizability                   ...  NO

Choice of electric origin               ... Center of mass
Position of electric origin             ...     0.000000     0.000000     0.000000

General magnetic properties:
Magnetizability                         ...  NO

EPR properties:
g-Tensor (aka g-matrix)                 ...  NO
Zero-Field splitting spin-orbit         ...  NO
Zero-field splitting spin-spin          ...  NO
Hyperfine couplings                     ...  NO (   0 nuclei)
Quadrupole couplings                    ...  NO (   0 nuclei)
Contact density                         ...  NO (   0 nuclei)

NMR properties:
Chemical shifts                         ...  NO (   0 nuclei)
Spin-rotation constants                 ...  NO (   0 nuclei)
Spin-spin couplings                     ...  NO (   0 nuclei,    0 pairs)

Choice of magnetic origin               ... GIAO
Position of magnetic origin             ...     0.000000     0.000000     0.000000

Properties with geometric perturbations:
SCF Hessian                             ...  NO
IR spectrum                             ...  NO
VCD spectrum                            ...  NO
X-ray spectroscopy properties:
SCF XES/XAS/RIXS spectra                ...  NO

SCF SOC stabilization energy            ...  NO
Diagonal Born-Oppenheimer correction    ...  NO

-------------
DIPOLE MOMENT
-------------

Method             : SCF
Type of density    : Electron Density
Multiplicity       :   5
Irrep              :   0
Energy             :   -94.0887656114356332 Eh
Basis              : AO
                                X                 Y                 Z
Electronic contribution:     -0.000000000       0.000000000      -0.000000000
Nuclear contribution   :      0.000000000       0.000000000       0.000000000
                        -----------------------------------------
Total Dipole Moment    :     -0.000000000       0.000000000      -0.000000000
                        -----------------------------------------
Magnitude (a.u.)       :      0.000000000
Magnitude (Debye)      :      0.000000000



--------------------
Rotational spectrum 
--------------------
 
Rotational constants in cm-1:             0.000000             0.000000             0.000000 
Rotational constants in MHz :             0.000000             0.000000             0.000000 

Dipole components along the rotational axes: 
x,y,z [a.u.] :    -0.000000     0.000000    -0.000000 
x,y,z [Debye]:    -0.000000     0.000000    -0.000000 

 

Dipole moment calculation done in   0.0 sec 

Maximum memory used throughout the entire PROP-calculation: 1.6 MB

--------------------------------
SUGGESTED CITATIONS FOR THIS RUN
--------------------------------

Below you find a list of papers that are relevant to this ORCA run
We neither can nor want to force you to cite these papers, but we appreciate if you do
You receive ORCA, which is the product of decades of hard work by many enthusiastic individuals, for free
The only thing we kindly ask in return is that you cite our papers,
We deeply appreciate it, if you show your appreciation for ORCA by not just citing the generic ORCA reference.

Please note that relegating all ORCA citations to the supporting information does *not* help us.
SI sections are not indexed - citations you put there will not count into any citation statistics
But we need these citations in order to attract the funding resources that allow us to do what we are doing

Therefore, if you are a happy ORCA user, please consider citing a few of the papers listed below in the main body of your paper

In addition to the list printed below, the program has created the file bbcp_def2tzvp_Compound_1_atom44.bibtex that contains the list in bibtex format
You can import this file easily into all common literature databanks and citation aid programs

It goes without saying that in many instances, there are alternative algorithms to achieve similar
results as the ones you have gotten from ORCA. It is, of course, also the case that in some instances
ORCA just re-implements algorithms worked out by others. We are fully aware of that and we are also
fully appreciative of our colleagues work. Hence this citation list should not be read as indicating
that the listed papers, which are focused on our own work, are the only ones worth citing. It simply
meant to make it easier for users to cite ORCA specific papers. It is not a substitute for doing your
own literature research and citing the relevant literature in a scientifically appropriate manner.

List of essential papers. We consider these as the minimum necessary citations

  1. Neese, F.
     Software update: the ORCA program system, version 6.0
     WIRES Comput. Molec. Sci. 2025 15(1), e70019
     doi.org/10.1002/wcms.70019

List of papers to cite with high priority. The work reported in these papers was absolutely
necessary for this run to complete.
Our perspective: the developers of density functionals and basis sets usually get cited in chemistry papers
Good! But without the algorithms to do something with them, the functionals or basis sets would not do anything.
Hence, in our opinion, the algorithm design and method developments papers are equally worthy of getting cited

  1. Neese, F.
     The SHARK Integral Generation and Digestion System
     J. Comp. Chem. 2022 44(3), 381
     doi.org/10.1002/jcc.26942

List of suggested additional citations. These are papers that are important in the 'surrounding' of 
of this run, or papers that preceded the highly important papers. If you like your results we are grateful for a citation.

  1. Neese, F.
     The ORCA program system
     WIRES Comput. Molec. Sci. 2012 2(1), 73-78
     doi.org/10.1002/wcms.81
  2. Neese, F.
     Software update: the ORCA program system, version 4.0
     WIRES Comput. Molec. Sci. 2018 8(1), 1-6
     doi.org/10.1002/wcms.1327
  3. Neese, F.; Wennmohs, F.; Becker, U.; Riplinger, C.
     The ORCA quantum chemistry program package
     J. Chem. Phys. 2020 152(22), 224108
     doi.org/10.1063/5.0004608
  4. Neese, F.
     Software update: The ORCA program system—Version 5.0
     WIRES Comput. Molec. Sci. 2022 12(1), e1606
     doi.org/10.1002/wcms.1606

List of optional additional citations

  1. Neese, F.
     Approximate second-order SCF convergence for spin unrestricted wavefunctions
     Chem. Phys. Lett. 2000 325(1-3), 93-98
     doi.org/10.1016/s0009-2614(00)00662-x

Timings for individual modules:

Sum of individual times          ...        1.345 sec (=   0.022 min)
Startup calculation              ...        0.278 sec (=   0.005 min)  20.7 %
SCF iterations                   ...        0.937 sec (=   0.016 min)  69.7 %
Property calculations            ...        0.130 sec (=   0.002 min)   9.7 %
                             ****ORCA TERMINATED NORMALLY****
TOTAL RUN TIME: 0 days 0 hours 0 minutes 1 seconds 539 msec
