
                                 *****************
                                 * O   R   C   A *
                                 *****************

                                            #,                                       
                                            ###                                      
                                            ####                                     
                                            #####                                    
                                            ######                                   
                                           ########,                                 
                                     ,,################,,,,,                         
                               ,,#################################,,                 
                          ,,##########################################,,             
                       ,#########################################, ''#####,          
                    ,#############################################,,   '####,        
                  ,##################################################,,,,####,       
                ,###########''''           ''''###############################       
              ,#####''   ,,,,##########,,,,          '''####'''          '####       
            ,##' ,,,,###########################,,,                        '##       
           ' ,,###''''                  '''############,,,                           
         ,,##''                                '''############,,,,        ,,,,,,###''
      ,#''                                            '''#######################'''  
     '                                                          ''''####''''         
             ,#######,   #######,   ,#######,      ##                                
            ,#'     '#,  ##    ##  ,#'     '#,    #''#        ,####,    ,#,          
            ##       ##  ##   ,#'  ##            #'  '#       #'       ,# #          
            ##       ##  #######   ##           ,######,      #####,      #          
            '#,     ,#'  ##    ##  '#,     ,#' ,#      #,     #,   #      #          
             '#######'   ##     ##  '#######'  #'      '#     '####' #    #          



                #########################################################
                #                        -***-                          #
                #          Department of theory and spectroscopy        #
                #                                                       #
                #                      Frank Neese                      #
                #                                                       #
                #     Directorship, Architecture, Infrastructure        #
                #                    SHARK, DRIVERS                     #
                #        Core code/Algorithms in most modules           #
                #                                                       #
                #        Max Planck Institute fuer Kohlenforschung      #
                #                Kaiser Wilhelm Platz 1                 #
                #                 D-45470 Muelheim/Ruhr                 #
                #                      Germany                          #
                #                                                       #
                #                  All rights reserved                  #
                #                        -***-                          #
                #########################################################


                         Program Version 6.1.1  -  RELEASE   -
                                (GIT: $487d211c$)
                          ($2025-11-21 10:33:24 +0100$)


 With contributions from (in alphabetic order):
[Max-Planck-Institut fuer Kohlenforschung]                               
  Daniel Aravena         : Magnetic Suceptibility                        
  Michael Atanasov       : Ab Initio Ligand Field Theory (pilot matlab implementation)
  Alexander A. Auer      : GIAO ZORA, VPT2 properties, NMR spectrum      
  Ute Becker             : All parallelization in ORCA, NUMFREQ, NUMCALC 
  Giovanni Bistoni       : ED, misc. LED, open-shell LED, HFLD           
  Dmytro Bykov           : pre 5.0 version of the SCF Hessian            
  Marcos Casanova-Páez   : Triplet and SCS-CIS(D). UHF-(DLPNO)-IP/EA/STEOM-CCSD. UHF-CVS-IP/STEOM-CCSD   
  Vijay G. Chilkuri      : MRCI spin determinant printing, contributions to CSF-ICE 
  Pauline Colinet        : FMM embedding                                 
  Dipayan Datta          : RHF DLPNO-CCSD density                        
  Achintya Kumar Dutta   : EOM-CC, STEOM-CC                              
  Nicolas Foglia         : Exact transition moments, OPA infrastructure, MCD improvements    
  Dmitry Ganyushin       : Spin-Orbit,Spin-Spin,Magnetic field MRCI      
  Miquel Garcia-Rates    : C-PCM and meta-GGA Hessian, CCSD/C-PCM, Gaussian charge scheme 
  Tiago L. C. Gouveia    : GS-ROHF, GS-ROCIS                             
  Yang Guo               : DLPNO-NEVPT2, F12-NEVPT2, CIM, IAO-localization        
  Andreas Hansen         : Spin unrestricted coupled pair/coupled cluster methods 
  Ingolf Harden          : AUTO-CI MPn and infrastructure                
  Benjamin Helmich-Paris : MC-RPA, TRAH-(SCF,CASSCF), AVAS, COSX integrals, SCF dyn. polar., MC-PDFT, srDFT 
  Lee Huntington         : MR-EOM, pCC                                   
  Robert Izsak           : Overlap fitted RIJCOSX, COSX-SCS-MP3, EOM     
  Riya Kayal             : Wick's Theorem for AUTO-CI, AUTO-CI UHF-CCSDT 
  Emily Kempfer          : AUTO-CI RHF CISDT and CCSDT, approximate NEVPT4
  Christian Kollmar      : KDIIS, OOCD, Brueckner-CCSD(T), CCSD density, CASPT2, CASPT2-K, improved NEVPT2 
  Axel Koslowski         : Symmetry handling                             
  Simone Kossmann        : meta-GGA functionals, TD-DFT gradient, OOMP2, (MP2 Hessian; deprecated post 5.0) 
  Lucas Lang             : DCDCAS, Hyperfine gauge corrections, ICE-SOC+SSC
  Marvin Lechner         : AUTO-CI (C++ implementation), FIC-MRCC        
  Spencer Leger          : CASSCF response                               
  Dagmar Lenk            : GEPOL surface, SMD, ORCA-2-JSON               
  Dimitrios Liakos       : Extrapolation schemes; Compound Job, Property file
  Dimitrios Manganas     : Further ROCIS development; embedding schemes. LFT, Crystal Embedding 
  Dimitrios Pantazis     : SARC Basis sets                               
  Anastasios Papadopoulos: AUTO-CI, single reference methods and gradients 
  Taras Petrenko         : pre 6.0 DFT Hessian and TD-DFT gradient,  ECA, NRVS 
  Petra Pikulova         : Analytic Raman intensities                    
  Peter Pinski           : DLPNO-MP2, DLPNO-MP2 Gradient                 
  Shashank Vittal Rao    : ES-AILFT, MagRelax                            
  Christoph Reimann      : Effective Core Potentials                     
  Marius Retegan         : Local ZFS, SOC                                
  Christoph Riplinger    : Optimizer, TS searches, QM/MM, DLPNO-CCSD(T), (RO)-DLPNO pert. Triples 
  Michael Roemelt        : Original ROCIS implementation, recursive CI coupling coefficients
  Masaaki Saitow         : Open-shell DLPNO-CCSD energy and density      
  Barbara Sandhoefer     : DKH picture change effects                    
  Yorick L. A. Schmerwitz: GMF and freeze-and-release deltaSCF, NEB S-IDPP initial path                    
  Kantharuban Sivalingam : CASSCF convergence/infrastructure, NEVPT2, NEVPT3, NEVPT4(SD), FIC-MRCI and CEPA variants
  Bernardo de Souza      : ESD, SOC TD-DFT                               
  Georgi L. Stoychev     : AutoAux, RI-MP2 NMR, DLPNO-MP2 response, X2C  
  Van Anh Tran           : RI-MP2 g-tensors                              
  Willem Van den Heuvel  : Paramagnetic NMR                              
  Zikuan Wang            : NOTCH, Electric field optimization            
  Frank Wennmohs         : Technical directorship and infrastructure     
  Hang Xu                : AUTO-CI-Response properties                   
                                                                         
[FACCTs GmbH]                                                            
  Markus Bursch, Nicolas Foglia, Miquel Garcia-Rates, Ingolf Harden, Hagen Neugebauer, Anastasios Papadopoulos, 
  Christoph Riplinger, Bernardo de Souza, Georgi L. Stoychev                                                    
                                                                 
  APM, various basis sets, CI-OPT, improved COSX, DLPNO-Multilevel,           
  DOCKER, DRACO, updates on ESD, Fragmentator, GOAT, IRC, LR-CPCM, L-BFGS, MBIS, meta-GGA TD-DFT gradient, ML-optimized integration grids, 
  MM, NACMEs, nearIR, NEB, NEB-TS, NL-DFT gradient (VV10), 2- and 3-layer-ONIOM, interface openCOSMO-RS, QMMM,   
  Crystal-QMMM, RESP, rigid body optimization, SF, symmetry and pop. for TD-DFT, various functionals, SOLVATOR                                   
                                                                         
[Other institutions]                                                     
  V. Asgeirsson          : NEB                                           
  Christoph Bannwarth    : sTDA-DFT, sTD-DFT, PBEh-3c, B97-3c, D3        
  Giovanni Bistoni       : ETS/NOCV, ADLD/ADEX, COVALED                  
  Martin Brehm           : Molecular dynamics                            
  Ronald Cardenas        : ETS/NOCV                                      
  Martina Colucci        : COVALED                                       
  Sebastian Ehlert       : rSCAN, r2SCAN, r2SCAN-3c, D4, dhf basis sets  
  Marvin Friede          : D4 for Fr, Ra, Ac-Lr                          
  Lars Goerigk           : TD-DFT with DH, B97 family of functionals     
  Stefan Grimme          : VdW corrections, initial TS optimization, DFT functionals, gCP, sTDA/sTD-DF 
  Waldemar Hujo          : DFT-NL                                        
  H. Jonsson             : NEB                                           
  Holger Kruse           : gCP                                           
  Marcel Mueller         : wB97X-3c, vDZP basis set                      
  Hagen Neugebauer       : wr2SCAN, Native XTB                           
  Gianluca Regni         : ADLD/ADEX                                     
  Tobias Risthaus        : pre 6.0 range-separated hybrid DFT and stability analysis
  Lukas Wittmann         : regularized MP2, r2SCAN double-hybrids, wr2SCAN        
                                                                         
We gratefully acknowledge several colleagues who have allowed us to      
interface, adapt or use parts of their codes:                            
  Ed Valeev, F. Pavosevic, A. Kumar             : LibInt (2-el integral package), F12 methods 
  Garnet Chan, S. Sharma, J. Yang, R. Olivares  : DMRG                   
  Ulf Ekstrom                                   : XCFun DFT Library      
  Mihaly Kallay                                 : mrcc  (arbitrary order and MRCC methods)
  Frank Weinhold                                : gennbo (NPA and NBO analysis)           
  Simon Mueller                                 : openCOSMO-RS                            
  Christopher J. Cramer and Donald G. Truhlar   : smd solvation model                     
  S Lehtola, MJT Oliveira, MAL Marques          : LibXC Library                           
  Liviu Ungur et al                             : ANISO software                          


 Your calculation uses the libint2 library for the computation of 2-el integrals
 For citations please refer to: http://libint.valeyev.net

 Your ORCA version has been built with support for libXC version: 7.0.0
 For citations please refer to: https://libxc.gitlab.io

 This ORCA versions uses:
   CBLAS   interface :  Fast vector & matrix operations
   LAPACKE interface :  Fast linear algebra routines
   SCALAPACK package :  Parallel linear algebra routines
   Shared memory     :  Shared parallel matrices
   BLAS/LAPACK       :  OpenBLAS 0.3.29  USE64BITINT DYNAMIC_ARCH NO_AFFINITY Cooperlake SINGLE_THREADED
        Core in use  :  Cooperlake
   Copyright (c) 2011-2014, The OpenBLAS Project


  ***********************************
  * Starting time: Thu Jul 16 18:54:36 2026
  * Host name:     c1-6
  * Process ID:    3623556
  * Working dir.:  /cluster/projects/nn14654k/ylvaos/TPhP_bsse/orca/opt1_bp86/bbcp
  ***********************************

================================================================================

----- Orbital basis set information -----
Your calculation utilizes the basis: def2-SVP
   F. Weigend and R. Ahlrichs, Phys. Chem. Chem. Phys. 7, 3297 (2005).

The basis set includes element-specific modifications.

----- AuxJ basis set information -----
Your calculation utilizes the auxiliary basis: def2/J
   H-Rn: F. Weigend, Phys. Chem. Chem. Phys. 8, 1057 (2006).
   Fr-Lr: K. Eichkorn, F. Weigend, O. Treutler, R. Ahlrichs; Theor. Chem. Acc. 97, 119 (1997).

The basis set includes element-specific modifications.

================================================================================
                                        WARNINGS
                       Please study these warnings very carefully!
================================================================================

WARNING: Frozen-Core approximation turned on, but there are no core electrons.
  ===> : Turning off frozen-core approximation

WARNING: Old DensityContainer found on disk!
         Will remove this file - 
         If you want to keep old densities, please start your calculation with a different basename. 


WARNING: ROHF and Conv is not properly working
  ===> : Setting Mode to Direct


WARNING: Found SCFConvIgnored == true
  ===> : Will try to continue after any unconverged SCF -
         no matter how far from convergence the wavefunction might be.

         Please be very careful with your results!


WARNING: TRAH-SCF with ROHF wave function is not implemented yet
  ===> : Turning TRAH off


================================================================================
                                       INPUT FILE
================================================================================
NAME = bbcp_def2qzvp_Compound_6_atom44.inp
|  1> # input to generate an atomic fitting density for Ru
|  2> # this file is used internally by ORCA
|  3> #
|  4> # atomic ground state (Mult=5): 1s2 2s2 2p6 3s2 3p6 4s2 3d10 4p6 5s2 4d6 
|  5> #
|  6> ! ROHF def2-SVP def2/J Conv LeanSCF AODIIS SOSCF NoMulliken NoLoewdin NoMayer NoPrintMOs 
|  7> 
|  8> %output print[p_atomdensfit] 2 end
|  9> 
| 10> %scf
| 11>   guess     HCore
| 12>   maxiter    1000
| 13>   maxdisk  500000
| 14>   diismaxeq     8
| 15>   soscfstart 1e-4
| 16>   lshift  1.000000
| 17>   ignoreconv true
| 18> 
| 19>   hftyp        rohf
| 20>   rohf_case    sahf
| 21>   rohf_numop   2
| 22>   rohf_norb[1] 5
| 23>   rohf_nel[1]  6
| 24> 
| 25> end
| 26> 
| 27> %basis
| 28>   NewECP 44
| 29>     N_core 28
| 30>     lmax f
| 31>     s 4
| 32>       1      11.1052693000    209.8229712000  2
| 33>       2       5.4147454000     30.6547264000  2
| 34>       3      11.3600000000     28.3406163000  2
| 35>       4       5.6800000000      4.9446292000  2
| 36>     p 4
| 37>       1       9.7712707000    146.3361823000  2
| 38>       2       5.0739908000     24.1278772000  2
| 39>       3      11.3600000000     28.3406163000  2
| 40>       4       5.6800000000      4.9446292000  2
| 41>     d 4
| 42>       1       7.6714231000     67.5158967000  2
| 43>       2       4.1365647000      9.8701041000  2
| 44>       3      11.3600000000     28.3406163000  2
| 45>       4       5.6800000000      4.9446292000  2
| 46>     f 2
| 47>       1      11.3600000000    -28.3406163000  2
| 48>       2       5.6800000000     -4.9446292000  2
| 49>   end
| 50>   NewGTO 44
| 51>     s 3 
| 52>      1      15.0000000000      5.0186769174
| 53>      2      13.5000000000     -7.4167472314
| 54>      3       7.2130868530      1.5654342808
| 55>     s 1 
| 56>      1       4.5405901225      1.0000000000
| 57>     s 1 
| 58>      1       1.1904973723      1.0000000000
| 59>     s 1 
| 60>      1       0.5430753159      1.0000000000
| 61>     s 1 
| 62>      1       0.1370056304      1.0000000000
| 63>     s 1 
| 64>      1       0.0733963750      1.0000000000
| 65>     s 1 
| 66>      1       0.0312507155      1.0000000000
| 67>     p 4 
| 68>      1      11.3881000610      0.0748913524
| 69>      2       6.1591005666     -0.3459421738
| 70>      3       1.7320431063      0.5753664197
| 71>      4       1.0194857402      0.5805818381
| 72>     p 1 
| 73>      1       0.5813141911      1.0000000000
| 74>     p 1 
| 75>      1       0.2729053027      1.0000000000
| 76>     p 1 
| 77>      1       0.0660000000      1.0000000000
| 78>     p 1 
| 79>      1       0.0220000000      1.0000000000
| 80>     d 4 
| 81>      1      18.5982477780      0.0052341166
| 82>      2       6.7883773752     -0.0573074377
| 83>      3       2.2470797667      0.3600648700
| 84>      4       1.0884195428      0.7104599746
| 85>     d 1 
| 86>      1       0.4978789289      1.0000000000
| 87>     d 1 
| 88>      1       0.2148196827      1.0000000000
| 89>     d 1 
| 90>      1       0.0856667512      1.0000000000
| 91>   end
| 92>   NewAuxGTO 44
| 93>     S 1
| 94>      1 1310.72 1.0
| 95>     S 1
| 96>      1  655.36 1.0
| 97>     S 1
| 98>      1  327.68 1.0
| 99>     S 1
|100>      1  163.84 1.0
|101>     S 1
|102>      1   81.82 1.0
|103>     S 1
|104>      1   40.96 1.0
|105>     S 1
|106>      1   20.48 1.0
|107>     S 1
|108>      1   10.24 1.0
|109>     S 1
|110>      1    5.12 1.0
|111>     S 1
|112>      1    2.56 1.0
|113>     S 1
|114>      1    1.28 1.0
|115>     S 1
|116>      1    0.64 1.0
|117>     S 1
|118>      1    0.32 1.0
|119>     S 1
|120>      1    0.16 1.0
|121>     S 1
|122>      1    0.08 1.0
|123>     S 1
|124>      1    0.04 1.0
|125>     S 1
|126>      1    0.02 1.0
|127>     S 1
|128>      1    0.01 1.0
|129>   end
|130> end
|131> 
|132> * xyz 0 5
|133> 44  0.0 0.0 0.0
|134> *
|135> 
|136> 
|137>                          ****END OF INPUT****
================================================================================

                       ****************************
                       * Single Point Calculation *
                       ****************************

---------------------------------
CARTESIAN COORDINATES (ANGSTROEM)
---------------------------------
  Ru     0.000000    0.000000    0.000000

----------------------------
CARTESIAN COORDINATES (A.U.)
----------------------------
  NO LB      ZA    FRAG     MASS         X           Y           Z
   0 Ru   16.0000*   0   101.070    0.000000    0.000000    0.000000
* core charge reduced due to ECP

--------------------------------
INTERNAL COORDINATES (ANGSTROEM)
--------------------------------
 Ru     0   0   0     0.000000000000     0.00000000     0.00000000

---------------------------
INTERNAL COORDINATES (A.U.)
---------------------------
 Ru     0   0   0     0.000000000000     0.00000000     0.00000000

---------------------
BASIS SET INFORMATION
---------------------
There are 1 groups of distinct atoms

 Group   1 Type Ru  : 9s8p7d contracted to 7s5p4d pattern {3111111/41111/4111}

Atom   0Ru   basis set group =>   1
---------------------------------
AUXILIARY/J BASIS SET INFORMATION
---------------------------------
There are 1 groups of distinct atoms

 Group   1 Type Ru  : 18s contracted to 18s pattern {111111111111111111}

Atom   0Ru   basis set group =>   1
-------------------------
ECP PARAMETER INFORMATION
-------------------------

 Group 1, Type Ru ECP (replacing 28 core electrons, lmax=3)

Atom   0Ru   ECP group =>   1

------------------------------------------------------------------------------
                             ORCA STARTUP CALCULATIONS
------------------------------------------------------------------------------
------------------------------------------------------------------------------
                   ___                                                        
                  /   \      - P O W E R E D   B Y -                         
                 /     \                                                     
                 |  |  |   _    _      __       _____    __    __             
                 |  |  |  | |  | |    /  \     |  _  \  |  |  /  |          
                  \  \/   | |  | |   /    \    | | | |  |  | /  /          
                 / \  \   | |__| |  /  /\  \   | |_| |  |  |/  /          
                |  |  |   |  __  | /  /__\  \  |    /   |      \           
                |  |  |   | |  | | |   __   |  |    \   |  |\   \          
                \     /   | |  | | |  |  |  |  | |\  \  |  | \   \       
                 \___/    |_|  |_| |__|  |__|  |_| \__\ |__|  \__/        
                                                                              
                      - O R C A' S   B I G   F R I E N D -                    
                                      &                                       
                       - I N T E G R A L  F E E D E R -                       
                                                                              
 v1 FN, 2020, v2 2021, v3 2022-2024                                           
------------------------------------------------------------------------------


----------------------
SHARK INTEGRAL PACKAGE
----------------------

Number of atoms                             ...      1
Number of basis functions                   ...     42
Number of shells                            ...     16
Maximum angular momentum                    ...      2
Integral batch strategy                     ... SHARK/LIBINT Hybrid
RI-J (if used) integral strategy            ... SPLIT-RIJ (Revised 2003 algorithm where possible)
Printlevel                                  ...      1
Contraction scheme used                     ... SEGMENTED contraction
Prescreening option                         ... SCHWARTZ
   Thresh                                   ... 1.000e-10
   Tcut                                     ... 1.000e-11
   Tpresel                                  ... 1.000e-11 
Coulomb Range Separation                    ... NOT USED
Exchange Range Separation                   ... NOT USED
Multipole approximations                    ... NOT USED
Finite Nucleus Model                        ... NOT USED
CABS basis                                  ... NOT available
Auxiliary Coulomb fitting basis             ... AVAILABLE
   # of basis functions in Aux-J            ...     18
   # of shells in Aux-J                     ...     18
   Maximum angular momentum in Aux-J        ...      0
Auxiliary J/K fitting basis                 ... NOT available
Auxiliary Correlation fitting basis         ... NOT available
Auxiliary 'external' fitting basis          ... NOT available

Checking pre-screening integrals            ... done (  0.0 sec) Dimension = 16
   => SHARK Basis and OBASIS are compatible. Storing Pre-screening
Shell pair information
Shell pair cut-off parameter TPreSel        ...   1.0e-11
Total number of shell pairs                 ...       136
Shell pairs after pre-screening             ...       136
Total number of primitive shell pairs       ...       315
Primitive shell pairs kept                  ...       315
          la=0 lb=0:     28 shell pairs
          la=1 lb=0:     35 shell pairs
          la=1 lb=1:     15 shell pairs
          la=2 lb=0:     28 shell pairs
          la=2 lb=1:     20 shell pairs
          la=2 lb=2:     10 shell pairs

Checking whether 4 symmetric matrices of dimension 42 fit in memory
:Max Core in MB      =   4096.00
 MB in use           =      1.34
 MB left             =   4094.66
 MB needed           =      0.03
 Data fit in memory  = YES
Calculating RI/J V-Matrix + Cholesky decomp.... done (  0.0 sec)
Calculating Nuclear repulsion               ... done (  0.0 sec) ENN=      0.000000000000 Eh

Diagonalization of the overlap matrix:
Smallest eigenvalue                        ... 5.957e-03
Time for diagonalization                   ...    0.000 sec
Threshold for overlap eigenvalues          ... 1.000e-07
Number of eigenvalues below threshold      ... 0
Time for construction of square roots      ...    0.001 sec
Total time needed                          ...    0.002 sec

-------------------
DFT GRID GENERATION
-------------------

General Integration Accuracy     IntAcc      ... 4.388
Radial Grid Type                 RadialGrid  ... OptM3 with GC (2021)
Angular Grid (max. ang.)         AngularGrid ... 4 (Lebedev-302)
Angular grid pruning method      GridPruning ... 4 (adaptive)
Weight generation scheme         WeightScheme... mBecke (2022)
Basis function cutoff            BFCut       ... 1.0000e-10
Integration weight cutoff        WCut        ... 1.0000e-14
Partially contracted basis set               ... off
Rotationally invariant grid construction     ... off
Angular grids for H and He will be reduced by one unit

Total number of grid points                  ...    11810
Total number of batches                      ...      185
Average number of points per batch           ...       63
Average number of grid points per atom       ...    11810
Grids setup in   0.2 sec
Initializing property integral containers    ... done (  0.0 sec)

SHARK setup successfully completed in   0.3 seconds

Maximum memory used throughout the entire STARTUP-calculation: 6.4 MB
-------------------------------------------------------------------------------
                                 ORCA GUESS
                   Start orbitals & Density for SCF / CASSCF
-------------------------------------------------------------------------------

------------
SCF SETTINGS
------------
Hamiltonian:
 Ab initio Hamiltonian  Method          .... Hartree-Fock(GTOs)


General Settings:
 Integral files         IntName         .... bbcp_def2qzvp_Compound_6_atom44
 Hartree-Fock type      HFTyp           .... ROHF
 Total Charge           Charge          ....    0
 Multiplicity           Mult            ....    5
 Number of Electrons    NEL             ....   16
 Basis Dimension        Dim             ....   42
 Nuclear Repulsion      ENuc            ....      0.0000000000 Eh

Convergence Acceleration:
 AO-DIIS                CNVDIIS         .... on
   Start iteration      DIISMaxIt       ....    12
   Startup error        DIISStart       ....  0.200000
   # of expansion vecs  DIISMaxEq       ....     8
   Bias factor          DIISBfac        ....   1.050
   Max. coefficient     DIISMaxC        ....  10.000
 MO-DIIS                CNVKDIIS        .... off
 Trust-Rad. Augm. Hess. CNVTRAH         .... off
 SOSCF                 CNVSOSCF           .... on
   Start iteration     SOSCFMaxIt         ....   150
   Startup grad/error  SOSCFStart         ....  0.000100
   Hessian update      SOSCFHessUp        .... L-BFGS
   Autom. constraints  SOSCFAutoConstrain .... off
 Level Shifting         CNVShift        .... on
   Level shift para.    LevelShift      ....    1.0000
   Turn off err/grad.   ShiftErr        ....    0.0010
 Zerner damping         CNVZerner       .... off
 Static damping         CNVDamp         .... on
   Fraction old density DampFac         ....    0.7000
   Max. Damping (<1)    DampMax         ....    0.9800
   Min. Damping (>=0)   DampMin         ....    0.0000
   Turn off err/grad.   DampErr         ....    0.1000

SCF Procedure:
 Maximum # iterations   MaxIter         ....  1000
 SCF integral mode      SCFMode         .... Direct
   Integral package                     .... SHARK and LIBINT hybrid scheme
 Reset frequency        DirectResetFreq ....    20
 Integral Threshold     Thresh          ....  1.000e-10 Eh
 Primitive CutOff       TCut            ....  1.000e-11 Eh

Convergence Tolerance:
 Convergence Check Mode ConvCheckMode   .... Total+1el-Energy
 Convergence forced     ConvForced      .... -1
 Energy Change          TolE            ....  1.000e-06 Eh
 1-El. energy change                    ....  1.000e-03 Eh
 Orbital Gradient       TolG            ....  5.000e-05
 Orbital Rotation angle TolX            ....  5.000e-05
 DIIS Error             TolErr          ....  1.000e-06


--------------------
INITIAL GUESS: HCORE
--------------------

Orthogonalizing HCORE                      ... done
Diagonalizing the Hamiltonian (no sym.)    ... done
Back transforming and storing orbitals     ... done
AVERAGE-CONFIGURATION (SAHF) CASE FOUND

-------------------
FINAL ROHF SETTINGS
-------------------
Number of operators             ... 2
  operator   0:   5 orbitals  10 electrons n(mue)= 2.000
  operator   1:   5 orbitals   6 electrons n(mue)= 1.200
Vector coupling coefficients a and b (Zerner convention):
   1.000    1.000           1.000    1.000 
   1.000    0.972           1.000    1.389 


   => ROHF data were saved in the ROHF file

Making the density                         ... done

                      -----------------
                      INTIAL GUESS DONE 
                      -----------------

             **** ENERGY FILE WAS UPDATED (bbcp_def2qzvp_Compound_6_atom44.en.tmp) ****
Finished Guess after   0.0 sec
Maximum memory used throughout the entire GUESS-calculation: 4.0 MB

-------------------------------------------------------------------------------------------
                                      ORCA LEAN-SCF
                              memory conserving SCF solver
-------------------------------------------------------------------------------------------

----------------------------------------D-I-I-S--------------------------------------------
Iteration    Energy (Eh)           Delta-E    RMSDP     MaxDP     DIISErr   Damp  Time(sec)
-------------------------------------------------------------------------------------------
               ***  Starting incremental Fock matrix formation  ***
    1    -84.4171016551515265     0.00e+00  1.19e-01  2.60e+00  1.26e+00  0.700   0.2
    2    -87.8399763435515553    -3.42e+00  7.21e-02  1.81e+00  3.54e-01  0.700   0.0
                               ***Turning on AO-DIIS***
    3    -88.8805095128997209    -1.04e+00  5.11e-02  1.25e+00  1.51e-01  0.700   0.0
    4    -89.9872424930333210    -1.11e+00  3.63e-02  8.67e-01  1.61e-01  0.700   0.0
    5    -90.8302732494022962    -8.43e-01  2.58e-02  6.01e-01  1.39e-01  0.700   0.0
    6    -91.4711989937492831    -6.41e-01  1.93e-02  4.10e-01  1.14e-01  0.700   0.0
    7    -92.1433609561321987    -6.72e-01  1.38e-02  2.84e-01  7.31e-02  0.700   0.0
    8    -92.6372227163150797    -4.94e-01  3.39e-02  6.79e-01  4.54e-02  0.000   0.0
    9    -93.8115351790130632    -1.17e+00  1.63e-03  2.56e-02  2.43e-02  0.000   0.0
   10    -93.8178164387910414    -6.28e-03  3.48e-03  5.73e-02  1.33e-02  0.000   0.0
   11    -93.8220452621890644    -4.23e-03  4.21e-03  9.15e-02  9.80e-03  0.000   0.0
   12    -93.8250992768354166    -3.05e-03  2.77e-03  6.61e-02  7.33e-03  0.000   0.0
   13    -93.8267376274173728    -1.64e-03  1.05e-03  1.71e-02  6.82e-03  0.000   0.0
   14    -93.8276254635386096    -8.88e-04  1.13e-03  1.44e-02  6.35e-03  0.000   0.0
   15    -93.8286510214892786    -1.03e-03  1.53e-03  1.69e-02  5.58e-03  0.000   0.0
   16    -93.8298165632824492    -1.17e-03  1.32e-03  1.73e-02  4.23e-03  0.000   0.0
   17    -93.8306035464223527    -7.87e-04  8.96e-04  1.18e-02  2.75e-03  0.000   0.0
   18    -93.8310565714040905    -4.53e-04  9.24e-04  1.09e-02  2.19e-03  0.000   0.0
   19    -93.8313643183039545    -3.08e-04  6.17e-04  7.75e-03  1.19e-03  0.000   0.0
   20    -93.8314572604867578    -9.29e-05  2.40e-04  2.87e-03  7.31e-04  0.000   0.0
               *** Restarting incremental Fock matrix formation ***
                             ****Resetting DIIS****
   21    -93.8314718865157289    -1.46e-05  2.76e-05  5.12e-04  5.26e-04  0.000   0.0
   22    -93.8314738598189848    -1.97e-06  5.39e-05  8.67e-04  4.63e-04  0.000   0.0
   23    -93.8314771039882913    -3.24e-06  6.60e-05  7.88e-04  3.21e-04  0.000   0.0
   24    -93.8314794943312194    -2.39e-06  2.31e-05  1.91e-04  1.27e-04  0.000   0.0
                              *** Initializing SOSCF ***
---------------------------------------S-O-S-C-F--------------------------------------
Iteration    Energy (Eh)           Delta-E    RMSDP     MaxDP     MaxGrad    Time(sec)
--------------------------------------------------------------------------------------
   25    -93.8314799638785786    -4.70e-07  2.29e-05  4.16e-04  7.57e-05     0.0
               *** Restarting incremental Fock matrix formation ***
   26    -93.8314802284643861    -2.65e-07  7.18e-06  9.34e-05  6.81e-05     0.0
   27    -93.8314803103027657    -8.18e-08  3.92e-05  4.59e-04  6.16e-05     0.0
                 **** Energy Check signals convergence ****

               *****************************************************
               *                     SUCCESS                       *
               *           SCF CONVERGED AFTER  27 CYCLES          *
               *****************************************************

             **** ENERGY FILE WAS UPDATED (bbcp_def2qzvp_Compound_6_atom44.en.tmp) ****

----------------
TOTAL SCF ENERGY
----------------

Total Energy       :        -93.83148058259800 Eh           -2553.28439 eV

Components:
Nuclear Repulsion  :          0.00000000000000 Eh               0.00000 eV
Electronic Energy  :        -93.83148058259800 Eh           -2553.28439 eV
One Electron Energy:       -161.44881384982216 Eh           -4393.24557 eV
Two Electron Energy:         67.61733326722415 Eh            1839.96118 eV

Virial components:
Potential Energy   :       -127.37520007713030 Eh           -3466.05540 eV
Kinetic Energy     :         33.54371949453229 Eh             912.77101 eV
Virial Ratio       :          3.79728909007520

---------------
SCF CONVERGENCE
---------------

  Last Energy change         ...    8.1838e-08  Tolerance :   1.0000e-06
  Last MAX-Density change    ...    4.5871e-04  Tolerance :   1.0000e-05
  Last RMS-Density change    ...    3.9186e-05  Tolerance :   1.0000e-06
  Last DIIS Error            ...    7.5729e-05  Tolerance :   1.0000e-06
  Last Orbital Gradient      ...    6.1569e-05  Tolerance :   5.0000e-05
  Last Orbital Rotation      ...    1.8281e-03  Tolerance :   5.0000e-05


----------------
ORBITAL ENERGIES
----------------

  NO   OCC          E(Eh)            E(eV) 
   0   2.0000      -3.760716      -102.3343 
   1   2.0000      -2.439767       -66.3894 
   2   2.0000      -2.439747       -66.3889 
   3   2.0000      -2.425440       -65.9996 
   4   2.0000      -0.615375       -16.7452 
   5   1.2000      -0.615784       -16.7563 
   6   1.2000      -0.615747       -16.7553 
   7   1.2000      -0.608026       -16.5452 
   8   1.2000      -0.361286        -9.8311 
   9   1.2000      -0.175870        -4.7857 
  10   0.0000      -0.174553        -4.7498 
  11   0.0000      -0.023575        -0.6415 
  12   0.0000      -0.023552        -0.6409 
  13   0.0000       0.054654         1.4872 
  14   0.0000       0.067830         1.8457 
  15   0.0000       0.066772         1.8170 
  16   0.0000       0.066776         1.8171 
  17   0.0000       0.186360         5.0711 
  18   0.0000       0.188024         5.1164 
  19   0.0000       0.188033         5.1166 
  20   0.0000       0.197575         5.3763 
*Only the first 10 virtual orbitals were printed.

Warning: MO coefficients are modified such that the real solid harmonic m components
have the correct order within each shell (0, +1, -1, +2, -2, ...) and all s orbitals
come before all p orbitals etc. (with increasing orbital energy within each block of given angular momentum).

CleanUpVectors: The p-vectors have cracked symmetry
CleanUpVectors: The p-vectors have cracked symmetry
CleanUpVectors: The p-vectors have cracked symmetry
CleanUpVectors: The d-vectors have cracked symmetry at i=4
CleanUpVectors: The d-vectors have cracked symmetry at i=5
CleanUpVectors: The d-vectors have cracked symmetry at i=6
CleanUpVectors: The d-vectors have cracked symmetry at i=7
CleanUpVectors: The p-vectors have cracked symmetry
CleanUpVectors: The d-vectors have cracked symmetry at i=10
CleanUpVectors: The p-vectors have cracked symmetry
CleanUpVectors: The p-vectors have cracked symmetry
CleanUpVectors: The p-vectors have cracked symmetry
CleanUpVectors: The p-vectors have cracked symmetry
CleanUpVectors: The p-vectors have cracked symmetry
CleanUpVectors: The d-vectors have cracked symmetry at i=17
CleanUpVectors: The d-vectors have cracked symmetry at i=18
CleanUpVectors: The d-vectors have cracked symmetry at i=19
CleanUpVectors: The d-vectors have cracked symmetry at i=20
CleanUpVectors: The d-vectors have cracked symmetry at i=21
CleanUpVectors: The p-vectors have cracked symmetry
CleanUpVectors: The p-vectors have cracked symmetry
CleanUpVectors: The p-vectors have cracked symmetry
CleanUpVectors: The d-vectors have cracked symmetry at i=26
CleanUpVectors: The d-vectors have cracked symmetry at i=27
CleanUpVectors: The d-vectors have cracked symmetry at i=28
CleanUpVectors: The d-vectors have cracked symmetry at i=29
CleanUpVectors: The d-vectors have cracked symmetry at i=30
CleanUpVectors: The d-vectors have cracked symmetry at i=32
CleanUpVectors: The d-vectors have cracked symmetry at i=33
CleanUpVectors: The d-vectors have cracked symmetry at i=34
CleanUpVectors: The d-vectors have cracked symmetry at i=35
CleanUpVectors: The d-vectors have cracked symmetry at i=36
CleanUpVectors: The p-vectors have cracked symmetry
CleanUpVectors: The p-vectors have cracked symmetry
CleanUpVectors: The p-vectors have cracked symmetry
--------------------------
ATOM BASIS FOR ELEMENT Ru
--------------------------
 NewGTO Ru
 S 9
    1         15.000000000000        -0.406753976519
    2         13.500000000000         0.601112898650
    3          7.213086853000        -0.126875395483
    4          4.540590122500        -0.585338224207
    5          1.190497372300         0.845588465480
    6          0.543075315900         0.472635287967
    7          0.137005630400         0.012827963870
    8          0.073396375000        -0.001996575175
    9          0.031250715500         0.000132894774
 P 24
    1         11.388100061000         0.011462416173
    2          6.159100566600        -0.052947810937
    3          1.732043106300         0.088062094527
    4          1.019485740200         0.088860334835
    5         11.388100061000        -0.009874270624
    6          6.159100566600         0.045611763374
    7          1.732043106300        -0.075860877846
    8          1.019485740200        -0.076548520025
    9         11.388100061000        -0.047064656072
   10          6.159100566600         0.217403597464
   11          1.732043106300        -0.361582770116
   12          1.019485740200        -0.364860343099
   13          0.581314191100         0.075841086069
   14          0.581314191100        -0.065333119737
   15          0.581314191100        -0.311403335758
   16          0.272905302700         0.015007048534
   17          0.272905302700        -0.012927785579
   18          0.272905302700        -0.061618908901
   19          0.066000000000         0.000551383299
   20          0.066000000000        -0.000474987807
   21          0.066000000000        -0.002263978637
   22          0.022000000000        -0.000129393526
   23          0.022000000000         0.000111465739
   24          0.022000000000         0.000531289539
 D 24
    1         15.000000000000        -0.000000342893
    2         13.500000000000         0.000000563041
    3          7.213086853000        -0.000000222420
    4          4.540590122500        -0.000001809246
    5          1.190497372300         0.000013421673
    6          0.543075315900         0.000026042792
    7          0.137005630400        -0.000194427388
    8          0.073396375000        -0.000204805133
    9          0.031250715500        -0.000246048063
   10         18.598247778000        -0.001227894646
   11          6.788377375200         0.013444006178
   12          2.247079766700        -0.084469216055
   13          1.088419542800        -0.166669958925
   14         18.598247778000        -0.001557252251
   15          6.788377375200         0.017050085659
   16          2.247079766700        -0.107126354324
   17          1.088419542800        -0.211375763962
   18         18.598247778000        -0.000715885549
   19          6.788377375200         0.007838107105
   20          2.247079766700        -0.049247133163
   21          1.088419542800        -0.097171704021
   22         18.598247778000        -0.001881712724
   23          6.788377375200         0.020602547272
   24          2.247079766700        -0.129446609429
 S 9
    1         15.000000000000         0.107433144818
    2         13.500000000000        -0.158767837122
    3          7.213086853000         0.033510730131
    4          4.540590122500         0.183085802606
    5          1.190497372300        -0.131126565930
    6          0.543075315900        -1.283352264130
    7          0.137005630400         5.981915519042
    8          0.073396375000        -6.793250941804
    9          0.031250715500         2.093201455620
 S 9
    1         15.000000000000        -0.649930613722
    2         13.500000000000         0.960486430838
    3          7.213086853000        -0.202727467738
    4          4.540590122500        -1.039898732935
    5          1.190497372300         4.495042289999
    6          0.543075315900        -5.308255978729
    7          0.137005630400         4.679210570616
    8          0.073396375000        -3.688963535620
    9          0.031250715500         0.926735417817
 S 9
    1         15.000000000000        -4.748779825861
    2         13.500000000000         7.017885431889
    3          7.213086853000        -1.481247518763
    4          4.540590122500        -2.395307704621
    5          1.190497372300         2.570840818136
    6          0.543075315900        -1.877309130698
    7          0.137005630400         1.191434076390
    8          0.073396375000        -0.925633990750
    9          0.031250715500         0.236349493963
 S 9
    1         15.000000000000        -5.903772001264
    2         13.500000000000         8.724766580088
    3          7.213086853000        -1.841514651952
    4          4.540590122500        -0.475154343121
    5          1.190497372300         0.704897717083
    6          0.543075315900        -0.506042903733
    7          0.137005630400         0.322172263254
    8          0.073396375000        -0.251233592717
    9          0.031250715500         0.064399746467
 D 24
    1         15.000000000000        -0.000193605814
    2         13.500000000000         0.000317907025
    3          7.213086853000        -0.000125583937
    4          4.540590122500        -0.000954296377
    5          1.190497372300         0.006293579292
    6          0.543075315900         0.008831336634
    7          0.137005630400        -0.071380718003
    8          0.073396375000         0.018029187187
    9          0.031250715500        -0.019520513224
   10         18.598247778000         0.000274628399
   11          6.788377375200        -0.003006858857
   12          2.247079766700         0.018892211671
   13          1.088419542800         0.037277061280
   14         18.598247778000        -0.002220053817
   15          6.788377375200         0.024306985400
   16          2.247079766700        -0.152721738915
   17          1.088419542800        -0.301342040811
   18         18.598247778000         0.000943941732
   19          6.788377375200        -0.010335054821
   20          2.247079766700         0.064935553220
   21          1.088419542800         0.128127221885
   22         18.598247778000         0.001033391460
   23          6.788377375200        -0.011314424422
   24          2.247079766700         0.071088970684
 P 24
    1         11.388100061000         0.004425727241
    2          6.159100566600        -0.020443557946
    3          1.732043106300         0.034001453515
    4          1.019485740200         0.034309660251
    5         11.388100061000        -0.005016284320
    6          6.159100566600         0.023171491054
    7          1.732043106300        -0.038538515557
    8          1.019485740200        -0.038887848566
    9         11.388100061000         0.002130296591
   10          6.159100566600        -0.009840380899
   11          1.732043106300         0.016366390557
   12          1.019485740200         0.016514743974
   13          0.581314191100         0.026838089932
   14          0.581314191100        -0.030419292102
   15          0.581314191100         0.012918349548
   16          0.272905302700         0.014841398133
   17          0.272905302700        -0.016821794179
   18          0.272905302700         0.007143815724
   19          0.066000000000        -0.693829877626
   20          0.066000000000         0.786412660889
   21          0.066000000000        -0.333970744885
   22          0.022000000000         0.886333906664
   23          0.022000000000        -1.004603907172
   24          0.022000000000         0.426631375458
 D 24
    1         15.000000000000         0.000000095851
    2         13.500000000000        -0.000000157390
    3          7.213086853000         0.000000062174
    4          4.540590122500         0.000000508189
    5          1.190497372300        -0.000003250552
    6          0.543075315900        -0.000010455976
    7          0.137005630400         0.000161246437
    8          0.073396375000        -0.000264179947
    9          0.031250715500         0.000249597772
   10         18.598247778000        -0.000376969929
   11          6.788377375200         0.004127378577
   12          2.247079766700        -0.025932480852
   13          1.088419542800        -0.051168528847
   14         18.598247778000        -0.000477367684
   15          6.788377375200         0.005226616239
   16          2.247079766700        -0.032839034029
   17          1.088419542800        -0.064796155431
   18         18.598247778000        -0.000219999253
   19          6.788377375200         0.002408733782
   20          2.247079766700        -0.015134168461
   21          1.088419542800        -0.029861899442
   22         18.598247778000        -0.000577866350
   23          6.788377375200         0.006326958754
   24          2.247079766700        -0.039752529035
 P 24
    1         11.388100061000         0.004276973771
    2          6.159100566600        -0.019756427894
    3          1.732043106300         0.032858627956
    4          1.019485740200         0.033156475531
    5         11.388100061000        -0.003684388681
    6          6.159100566600         0.017019126889
    7          1.732043106300        -0.028305985353
    8          1.019485740200        -0.028562565424
    9         11.388100061000        -0.017561245061
   10          6.159100566600         0.081119850243
   11          1.732043106300        -0.134917455390
   12          1.019485740200        -0.136140416889
   13          0.581314191100         0.255198065122
   14          0.581314191100        -0.219839754208
   15          0.581314191100        -1.047842703976
   16          0.272905302700        -0.510250978972
   17          0.272905302700         0.439554468205
   18          0.272905302700         2.095089417140
   19          0.066000000000         0.301352297225
   20          0.066000000000        -0.259599205505
   21          0.066000000000        -1.237351881263
   22          0.022000000000        -0.118941857979
   23          0.022000000000         0.102462175058
   24          0.022000000000         0.488375011858
 D 24
    1         15.000000000000         0.000000208482
    2         13.500000000000        -0.000000342335
    3          7.213086853000         0.000000135234
    4          4.540590122500         0.000001107858
    5          1.190497372300        -0.000010117228
    6          0.543075315900        -0.000003654468
    7          0.137005630400         0.000202793956
    8          0.073396375000        -0.000289686081
    9          0.031250715500         0.000162085776
   10         18.598247778000        -0.000617533636
   11          6.788377375200         0.006761269011
   12          2.247079766700        -0.042481317353
   13          1.088419542800        -0.083821772581
   14         18.598247778000        -0.000781967394
   15          6.788377375200         0.008561625798
   16          2.247079766700        -0.053793029378
   17          1.088419542800        -0.106141413589
   18         18.598247778000        -0.000360402024
   19          6.788377375200         0.003945979451
   20          2.247079766700        -0.024792743052
   21          1.088419542800        -0.048919661613
   22         18.598247778000        -0.000946640143
   23          6.788377375200         0.010364599253
   24          2.247079766700        -0.065121182038
 D 24
    1         15.000000000000         0.000000707898
    2         13.500000000000        -0.000001162391
    3          7.213086853000         0.000000459183
    4          4.540590122500         0.000003863703
    5          1.190497372300        -0.000060693372
    6          0.543075315900         0.000144978799
    7          0.137005630400        -0.000427765720
    8          0.073396375000         0.000607416320
    9          0.031250715500        -0.000333483567
   10         18.598247778000        -0.003232243758
   11          6.788377375200         0.035389278064
   12          2.247079766700        -0.222352216690
   13          1.088419542800        -0.438733026695
   14         18.598247778000        -0.004090990666
   15          6.788377375200         0.044791549488
   16          2.247079766700        -0.281427055384
   17          1.088419542800        -0.555296212652
   18         18.598247778000        -0.001886972204
   19          6.788377375200         0.020660132414
   20          2.247079766700        -0.129808419122
   21          1.088419542800        -0.256130752641
   22         18.598247778000        -0.004955283568
   23          6.788377375200         0.054254543040
   24          2.247079766700        -0.340883413578
 P 24
    1         11.388100061000         0.044439962467
    2          6.159100566600        -0.205279471218
    3          1.732043106300         0.341418084692
    4          1.019485740200         0.344512874551
    5         11.388100061000        -0.038282698058
    6          6.159100566600         0.176837503407
    7          1.732043106300        -0.294113782330
    8          1.019485740200        -0.296779781560
    9         11.388100061000        -0.182470390294
   10          6.159100566600         0.842877067237
   11          1.732043106300        -1.401861921303
   12          1.019485740200        -1.414569121808
   13          0.581314191100        -0.997500203635
   14          0.581314191100         0.859294135023
   15          0.581314191100         4.095733690356
   16          0.272905302700         0.568314543193
   17          0.272905302700        -0.489573187087
   18          0.272905302700        -2.333498291821
   19          0.066000000000        -0.154043368891
   20          0.066000000000         0.132700287122
   21          0.066000000000         0.632501741295
   22          0.022000000000         0.056706709686
   23          0.022000000000        -0.048849857746
   24          0.022000000000        -0.232837627986
 end
-------------------------------------------
RADIAL EXPECTATION VALUES <R**-3> TO <R**3>
-------------------------------------------
   0 :     0.000197     1.242390     1.061013     1.038007     1.185469     1.492812
   1 :     1.307212     1.066521     0.977223     1.140564     1.448665     2.047600
   2 :     1.307201     1.066513     0.977219     1.140571     1.448688     2.047660
   3 :     1.310030     1.068468     0.978301     1.138828     1.443582     2.035376
   4 :     0.723060     0.682889     0.761722     1.545803     2.813858    30.083015
   5 :     0.718266     0.679157     0.759080     1.555045     2.858877    31.046870
   6 :     0.718279     0.679166     0.759087     1.555025     2.858782    31.044951
   7 :     0.716135     0.678066     0.758174     1.558798     2.877471    31.373257
   8 :     0.000205     0.198489     0.382105     3.139778    11.273574    46.235818
   9 :     0.073671     0.112372     0.286569     4.200913    20.336575   111.836878
  10 :     0.580067     0.572172     0.683848     1.816545     4.140958    58.937144
  11 :     0.028056     0.055619     0.200069     6.095594    43.037194   341.578544
  12 :     0.028052     0.055612     0.200057     6.095920    43.041349   341.622650
  13 :     0.000024     0.044746     0.170450     6.869944    50.813487   395.332229
  14 :     0.017708     0.035038     0.149606     8.173287    73.732497   706.828034
  15 :     0.047821     0.077020     0.220900     6.407354    51.915475   481.802908
  16 :     0.047826     0.077026     0.220910     6.407072    51.911771   481.762946
  17 :     0.052097     0.080828     0.239648     4.743554    23.968459   634.427482
  18 :     0.053693     0.082060     0.240379     4.745741    24.006575   636.112686
  19 :     0.053686     0.082055     0.240375     4.745769    24.006768   636.118531
  20 :     0.105132     0.125132     0.273549     4.612996    23.358421   623.219557
  21 :     0.054966     0.083144     0.241217     4.743192    24.010764   633.934485
  22 :     0.000617     0.163378     0.318174     4.442710    25.319428   173.916526
  23 :     0.261691     0.265630     0.421102     3.388402    16.275843   107.581831
  24 :     0.261702     0.265638     0.421108     3.388355    16.275399   107.577856
  25 :     0.244302     0.249863     0.405432     3.517876    17.163923   112.336782
  26 :     0.223105     0.247727     0.410819     3.226061    12.759142   296.124409
  27 :     0.275811     0.289949     0.441139     3.114722    12.159375   280.832368
  28 :     0.222839     0.247821     0.411177     3.219986    12.704408   294.165439
  29 :     0.222833     0.247817     0.411175     3.219983    12.704340   294.162380
  30 :     0.223387     0.248318     0.411398     3.221675    12.724665   294.800073
  31 :     0.001076     0.767175     0.735909     2.078793     6.951390    35.994819
  32 :     0.987480     0.766752     0.749629     1.914774     5.197652    94.918064
  33 :     1.024733     0.790944     0.763281     1.885929     5.080356    92.563897
  34 :     0.990945     0.769158     0.751181     1.909419     5.169250    94.227971
  35 :     0.990945     0.769159     0.751182     1.909415     5.169219    94.227105
  36 :     0.989135     0.768588     0.750830     1.910305     5.173038    94.241928
  37 :     1.917451     0.883379     0.748199     1.985364     6.067485    29.810341
  38 :     1.917452     0.883380     0.748200     1.985359     6.067455    29.810111
  39 :     1.916520     0.882428     0.747585     1.986373     6.068086    29.784154
  40 :     0.000000     5.674559     2.126031     0.613688     0.727297     2.470687
  41 :     0.000000    58.671006     6.113099     0.226562     0.096742     0.195165
Making the total density                ... o.k.
Making exponents                        ... done
Making rho(0)                           ... done (         0.000401526)
Integral calculation                    ... Solving the equation system             ... done
atomic density will be written to file bbcp_def2qzvp_Compound_6_atom44.adf

-------
TIMINGS
-------

Total SCF time: 0 days 0 hours 0 min 1 sec 

Total time                  ....       1.159 sec
Sum of individual times     ....       1.104 sec  ( 95.2%)

SCF preparation             ....       0.025 sec  (  2.2%)
Fock matrix formation       ....       0.782 sec  ( 67.5%)
  Startup                   ....       0.005 sec  (  0.6% of F)
  Coulomb+Exchange Fock     ....       0.683 sec  ( 87.2% of F)
Diagonalization             ....       0.000 sec  (  0.0%)
Density matrix formation    ....       0.091 sec  (  7.9%)
Total Energy calculation    ....       0.010 sec  (  0.9%)
Population analysis         ....       0.000 sec  (  0.0%)
Orbital Transformation      ....       0.007 sec  (  0.6%)
Orbital Orthonormalization  ....       0.000 sec  (  0.0%)
DIIS solution               ....       0.175 sec  ( 15.1%)
SOSCF solution              ....       0.013 sec  (  1.1%)
Finished LeanSCF after   1.2 sec

Maximum memory used throughout the entire LEANSCF-calculation: 6.2 MB

-------------------------   --------------------
FINAL SINGLE POINT ENERGY       -93.831480582598
-------------------------   --------------------


------------------------------------------------------------------------------
                              ORCA PROPERTY CALCULATIONS
------------------------------------------------------------------------------

GBWName                                 ... bbcp_def2qzvp_Compound_6_atom44.gbw
Number of atoms                         ...      1
Number of basis functions               ...     42
Max core memory                         ...   4096 MB

Electric properties:
Dipole moment                           ... YES
Quadrupole moment                       ...  NO
Static polarizability (Dipole/Dipole)   ...  NO
Static polarizability (Dipole/Quad.)    ...  NO
Static polarizability (Quad./Quad.)     ...  NO
Static polarizability (Velocity)        ...  NO
Static hyperpolarizability              ...  NO

Atomic electric properties:
Dipole moment                           ...  NO
Quadrupole moment                       ...  NO
Static polarizability                   ...  NO

Choice of electric origin               ... Center of mass
Position of electric origin             ...     0.000000     0.000000     0.000000

General magnetic properties:
Magnetizability                         ...  NO

EPR properties:
g-Tensor (aka g-matrix)                 ...  NO
Zero-Field splitting spin-orbit         ...  NO
Zero-field splitting spin-spin          ...  NO
Hyperfine couplings                     ...  NO (   0 nuclei)
Quadrupole couplings                    ...  NO (   0 nuclei)
Contact density                         ...  NO (   0 nuclei)

NMR properties:
Chemical shifts                         ...  NO (   0 nuclei)
Spin-rotation constants                 ...  NO (   0 nuclei)
Spin-spin couplings                     ...  NO (   0 nuclei,    0 pairs)

Choice of magnetic origin               ... GIAO
Position of magnetic origin             ...     0.000000     0.000000     0.000000

Properties with geometric perturbations:
SCF Hessian                             ...  NO
IR spectrum                             ...  NO
VCD spectrum                            ...  NO
X-ray spectroscopy properties:
SCF XES/XAS/RIXS spectra                ...  NO

SCF SOC stabilization energy            ...  NO
Diagonal Born-Oppenheimer correction    ...  NO

-------------
DIPOLE MOMENT
-------------

Method             : SCF
Type of density    : Electron Density
Multiplicity       :   5
Irrep              :   0
Energy             :   -93.8314805825980045 Eh
Basis              : AO
                                X                 Y                 Z
Electronic contribution:      0.000000000       0.000000000       0.000000000
Nuclear contribution   :      0.000000000       0.000000000       0.000000000
                        -----------------------------------------
Total Dipole Moment    :      0.000000000       0.000000000       0.000000000
                        -----------------------------------------
Magnitude (a.u.)       :      0.000000000
Magnitude (Debye)      :      0.000000000



--------------------
Rotational spectrum 
--------------------
 
Rotational constants in cm-1:             0.000000             0.000000             0.000000 
Rotational constants in MHz :             0.000000             0.000000             0.000000 

Dipole components along the rotational axes: 
x,y,z [a.u.] :     0.000000     0.000000     0.000000 
x,y,z [Debye]:     0.000000     0.000000     0.000000 

 

Dipole moment calculation done in   0.0 sec 

Maximum memory used throughout the entire PROP-calculation: 1.8 MB

--------------------------------
SUGGESTED CITATIONS FOR THIS RUN
--------------------------------

Below you find a list of papers that are relevant to this ORCA run
We neither can nor want to force you to cite these papers, but we appreciate if you do
You receive ORCA, which is the product of decades of hard work by many enthusiastic individuals, for free
The only thing we kindly ask in return is that you cite our papers,
We deeply appreciate it, if you show your appreciation for ORCA by not just citing the generic ORCA reference.

Please note that relegating all ORCA citations to the supporting information does *not* help us.
SI sections are not indexed - citations you put there will not count into any citation statistics
But we need these citations in order to attract the funding resources that allow us to do what we are doing

Therefore, if you are a happy ORCA user, please consider citing a few of the papers listed below in the main body of your paper

In addition to the list printed below, the program has created the file bbcp_def2qzvp_Compound_6_atom44.bibtex that contains the list in bibtex format
You can import this file easily into all common literature databanks and citation aid programs

It goes without saying that in many instances, there are alternative algorithms to achieve similar
results as the ones you have gotten from ORCA. It is, of course, also the case that in some instances
ORCA just re-implements algorithms worked out by others. We are fully aware of that and we are also
fully appreciative of our colleagues work. Hence this citation list should not be read as indicating
that the listed papers, which are focused on our own work, are the only ones worth citing. It simply
meant to make it easier for users to cite ORCA specific papers. It is not a substitute for doing your
own literature research and citing the relevant literature in a scientifically appropriate manner.

List of essential papers. We consider these as the minimum necessary citations

  1. Neese, F.
     Software update: the ORCA program system, version 6.0
     WIRES Comput. Molec. Sci. 2025 15(1), e70019
     doi.org/10.1002/wcms.70019

List of papers to cite with high priority. The work reported in these papers was absolutely
necessary for this run to complete.
Our perspective: the developers of density functionals and basis sets usually get cited in chemistry papers
Good! But without the algorithms to do something with them, the functionals or basis sets would not do anything.
Hence, in our opinion, the algorithm design and method developments papers are equally worthy of getting cited

  1. Neese, F.
     The SHARK Integral Generation and Digestion System
     J. Comp. Chem. 2022 44(3), 381
     doi.org/10.1002/jcc.26942

List of suggested additional citations. These are papers that are important in the 'surrounding' of 
of this run, or papers that preceded the highly important papers. If you like your results we are grateful for a citation.

  1. Neese, F.
     The ORCA program system
     WIRES Comput. Molec. Sci. 2012 2(1), 73-78
     doi.org/10.1002/wcms.81
  2. Neese, F.
     Software update: the ORCA program system, version 4.0
     WIRES Comput. Molec. Sci. 2018 8(1), 1-6
     doi.org/10.1002/wcms.1327
  3. Neese, F.; Wennmohs, F.; Becker, U.; Riplinger, C.
     The ORCA quantum chemistry program package
     J. Chem. Phys. 2020 152(22), 224108
     doi.org/10.1063/5.0004608
  4. Neese, F.
     Software update: The ORCA program system—Version 5.0
     WIRES Comput. Molec. Sci. 2022 12(1), e1606
     doi.org/10.1002/wcms.1606

List of optional additional citations

  1. Neese, F.
     Approximate second-order SCF convergence for spin unrestricted wavefunctions
     Chem. Phys. Lett. 2000 325(1-3), 93-98
     doi.org/10.1016/s0009-2614(00)00662-x

Timings for individual modules:

Sum of individual times          ...        1.549 sec (=   0.026 min)
Startup calculation              ...        0.291 sec (=   0.005 min)  18.8 %
SCF iterations                   ...        1.230 sec (=   0.021 min)  79.4 %
Property calculations            ...        0.028 sec (=   0.000 min)   1.8 %
                             ****ORCA TERMINATED NORMALLY****
TOTAL RUN TIME: 0 days 0 hours 0 minutes 1 seconds 673 msec
