
                                 *****************
                                 * O   R   C   A *
                                 *****************

                                            #,                                       
                                            ###                                      
                                            ####                                     
                                            #####                                    
                                            ######                                   
                                           ########,                                 
                                     ,,################,,,,,                         
                               ,,#################################,,                 
                          ,,##########################################,,             
                       ,#########################################, ''#####,          
                    ,#############################################,,   '####,        
                  ,##################################################,,,,####,       
                ,###########''''           ''''###############################       
              ,#####''   ,,,,##########,,,,          '''####'''          '####       
            ,##' ,,,,###########################,,,                        '##       
           ' ,,###''''                  '''############,,,                           
         ,,##''                                '''############,,,,        ,,,,,,###''
      ,#''                                            '''#######################'''  
     '                                                          ''''####''''         
             ,#######,   #######,   ,#######,      ##                                
            ,#'     '#,  ##    ##  ,#'     '#,    #''#        ,####,    ,#,          
            ##       ##  ##   ,#'  ##            #'  '#       #'       ,# #          
            ##       ##  #######   ##           ,######,      #####,      #          
            '#,     ,#'  ##    ##  '#,     ,#' ,#      #,     #,   #      #          
             '#######'   ##     ##  '#######'  #'      '#     '####' #    #          



                #########################################################
                #                        -***-                          #
                #          Department of theory and spectroscopy        #
                #                                                       #
                #                      Frank Neese                      #
                #                                                       #
                #     Directorship, Architecture, Infrastructure        #
                #                    SHARK, DRIVERS                     #
                #        Core code/Algorithms in most modules           #
                #                                                       #
                #        Max Planck Institute fuer Kohlenforschung      #
                #                Kaiser Wilhelm Platz 1                 #
                #                 D-45470 Muelheim/Ruhr                 #
                #                      Germany                          #
                #                                                       #
                #                  All rights reserved                  #
                #                        -***-                          #
                #########################################################


                         Program Version 6.1.1  -  RELEASE   -
                                (GIT: $487d211c$)
                          ($2025-11-21 10:33:24 +0100$)


 With contributions from (in alphabetic order):
[Max-Planck-Institut fuer Kohlenforschung]                               
  Daniel Aravena         : Magnetic Suceptibility                        
  Michael Atanasov       : Ab Initio Ligand Field Theory (pilot matlab implementation)
  Alexander A. Auer      : GIAO ZORA, VPT2 properties, NMR spectrum      
  Ute Becker             : All parallelization in ORCA, NUMFREQ, NUMCALC 
  Giovanni Bistoni       : ED, misc. LED, open-shell LED, HFLD           
  Dmytro Bykov           : pre 5.0 version of the SCF Hessian            
  Marcos Casanova-Páez   : Triplet and SCS-CIS(D). UHF-(DLPNO)-IP/EA/STEOM-CCSD. UHF-CVS-IP/STEOM-CCSD   
  Vijay G. Chilkuri      : MRCI spin determinant printing, contributions to CSF-ICE 
  Pauline Colinet        : FMM embedding                                 
  Dipayan Datta          : RHF DLPNO-CCSD density                        
  Achintya Kumar Dutta   : EOM-CC, STEOM-CC                              
  Nicolas Foglia         : Exact transition moments, OPA infrastructure, MCD improvements    
  Dmitry Ganyushin       : Spin-Orbit,Spin-Spin,Magnetic field MRCI      
  Miquel Garcia-Rates    : C-PCM and meta-GGA Hessian, CCSD/C-PCM, Gaussian charge scheme 
  Tiago L. C. Gouveia    : GS-ROHF, GS-ROCIS                             
  Yang Guo               : DLPNO-NEVPT2, F12-NEVPT2, CIM, IAO-localization        
  Andreas Hansen         : Spin unrestricted coupled pair/coupled cluster methods 
  Ingolf Harden          : AUTO-CI MPn and infrastructure                
  Benjamin Helmich-Paris : MC-RPA, TRAH-(SCF,CASSCF), AVAS, COSX integrals, SCF dyn. polar., MC-PDFT, srDFT 
  Lee Huntington         : MR-EOM, pCC                                   
  Robert Izsak           : Overlap fitted RIJCOSX, COSX-SCS-MP3, EOM     
  Riya Kayal             : Wick's Theorem for AUTO-CI, AUTO-CI UHF-CCSDT 
  Emily Kempfer          : AUTO-CI RHF CISDT and CCSDT, approximate NEVPT4
  Christian Kollmar      : KDIIS, OOCD, Brueckner-CCSD(T), CCSD density, CASPT2, CASPT2-K, improved NEVPT2 
  Axel Koslowski         : Symmetry handling                             
  Simone Kossmann        : meta-GGA functionals, TD-DFT gradient, OOMP2, (MP2 Hessian; deprecated post 5.0) 
  Lucas Lang             : DCDCAS, Hyperfine gauge corrections, ICE-SOC+SSC
  Marvin Lechner         : AUTO-CI (C++ implementation), FIC-MRCC        
  Spencer Leger          : CASSCF response                               
  Dagmar Lenk            : GEPOL surface, SMD, ORCA-2-JSON               
  Dimitrios Liakos       : Extrapolation schemes; Compound Job, Property file
  Dimitrios Manganas     : Further ROCIS development; embedding schemes. LFT, Crystal Embedding 
  Dimitrios Pantazis     : SARC Basis sets                               
  Anastasios Papadopoulos: AUTO-CI, single reference methods and gradients 
  Taras Petrenko         : pre 6.0 DFT Hessian and TD-DFT gradient,  ECA, NRVS 
  Petra Pikulova         : Analytic Raman intensities                    
  Peter Pinski           : DLPNO-MP2, DLPNO-MP2 Gradient                 
  Shashank Vittal Rao    : ES-AILFT, MagRelax                            
  Christoph Reimann      : Effective Core Potentials                     
  Marius Retegan         : Local ZFS, SOC                                
  Christoph Riplinger    : Optimizer, TS searches, QM/MM, DLPNO-CCSD(T), (RO)-DLPNO pert. Triples 
  Michael Roemelt        : Original ROCIS implementation, recursive CI coupling coefficients
  Masaaki Saitow         : Open-shell DLPNO-CCSD energy and density      
  Barbara Sandhoefer     : DKH picture change effects                    
  Yorick L. A. Schmerwitz: GMF and freeze-and-release deltaSCF, NEB S-IDPP initial path                    
  Kantharuban Sivalingam : CASSCF convergence/infrastructure, NEVPT2, NEVPT3, NEVPT4(SD), FIC-MRCI and CEPA variants
  Bernardo de Souza      : ESD, SOC TD-DFT                               
  Georgi L. Stoychev     : AutoAux, RI-MP2 NMR, DLPNO-MP2 response, X2C  
  Van Anh Tran           : RI-MP2 g-tensors                              
  Willem Van den Heuvel  : Paramagnetic NMR                              
  Zikuan Wang            : NOTCH, Electric field optimization            
  Frank Wennmohs         : Technical directorship and infrastructure     
  Hang Xu                : AUTO-CI-Response properties                   
                                                                         
[FACCTs GmbH]                                                            
  Markus Bursch, Nicolas Foglia, Miquel Garcia-Rates, Ingolf Harden, Hagen Neugebauer, Anastasios Papadopoulos, 
  Christoph Riplinger, Bernardo de Souza, Georgi L. Stoychev                                                    
                                                                 
  APM, various basis sets, CI-OPT, improved COSX, DLPNO-Multilevel,           
  DOCKER, DRACO, updates on ESD, Fragmentator, GOAT, IRC, LR-CPCM, L-BFGS, MBIS, meta-GGA TD-DFT gradient, ML-optimized integration grids, 
  MM, NACMEs, nearIR, NEB, NEB-TS, NL-DFT gradient (VV10), 2- and 3-layer-ONIOM, interface openCOSMO-RS, QMMM,   
  Crystal-QMMM, RESP, rigid body optimization, SF, symmetry and pop. for TD-DFT, various functionals, SOLVATOR                                   
                                                                         
[Other institutions]                                                     
  V. Asgeirsson          : NEB                                           
  Christoph Bannwarth    : sTDA-DFT, sTD-DFT, PBEh-3c, B97-3c, D3        
  Giovanni Bistoni       : ETS/NOCV, ADLD/ADEX, COVALED                  
  Martin Brehm           : Molecular dynamics                            
  Ronald Cardenas        : ETS/NOCV                                      
  Martina Colucci        : COVALED                                       
  Sebastian Ehlert       : rSCAN, r2SCAN, r2SCAN-3c, D4, dhf basis sets  
  Marvin Friede          : D4 for Fr, Ra, Ac-Lr                          
  Lars Goerigk           : TD-DFT with DH, B97 family of functionals     
  Stefan Grimme          : VdW corrections, initial TS optimization, DFT functionals, gCP, sTDA/sTD-DF 
  Waldemar Hujo          : DFT-NL                                        
  H. Jonsson             : NEB                                           
  Holger Kruse           : gCP                                           
  Marcel Mueller         : wB97X-3c, vDZP basis set                      
  Hagen Neugebauer       : wr2SCAN, Native XTB                           
  Gianluca Regni         : ADLD/ADEX                                     
  Tobias Risthaus        : pre 6.0 range-separated hybrid DFT and stability analysis
  Lukas Wittmann         : regularized MP2, r2SCAN double-hybrids, wr2SCAN        
                                                                         
We gratefully acknowledge several colleagues who have allowed us to      
interface, adapt or use parts of their codes:                            
  Ed Valeev, F. Pavosevic, A. Kumar             : LibInt (2-el integral package), F12 methods 
  Garnet Chan, S. Sharma, J. Yang, R. Olivares  : DMRG                   
  Ulf Ekstrom                                   : XCFun DFT Library      
  Mihaly Kallay                                 : mrcc  (arbitrary order and MRCC methods)
  Frank Weinhold                                : gennbo (NPA and NBO analysis)           
  Simon Mueller                                 : openCOSMO-RS                            
  Christopher J. Cramer and Donald G. Truhlar   : smd solvation model                     
  S Lehtola, MJT Oliveira, MAL Marques          : LibXC Library                           
  Liviu Ungur et al                             : ANISO software                          


 Your calculation uses the libint2 library for the computation of 2-el integrals
 For citations please refer to: http://libint.valeyev.net

 Your ORCA version has been built with support for libXC version: 7.0.0
 For citations please refer to: https://libxc.gitlab.io

 This ORCA versions uses:
   CBLAS   interface :  Fast vector & matrix operations
   LAPACKE interface :  Fast linear algebra routines
   SCALAPACK package :  Parallel linear algebra routines
   Shared memory     :  Shared parallel matrices
   BLAS/LAPACK       :  OpenBLAS 0.3.29  USE64BITINT DYNAMIC_ARCH NO_AFFINITY Cooperlake SINGLE_THREADED
        Core in use  :  Cooperlake
   Copyright (c) 2011-2014, The OpenBLAS Project


  ***********************************
  * Starting time: Tue Jul 14 13:54:16 2026
  * Host name:     c1-5
  * Process ID:    1019441
  * Working dir.:  /cluster/projects/nn14654k/ylvaos/TPhP_bsse/orca/opt1_bp86/bbcp
  ***********************************

================================================================================



################################################################################


                                COMPOUND JOB MainJOB 
Basename: bbcp_def2svp_Compound_0

################################################################################

================================================================================
                                       INPUT FILE
================================================================================
NAME = bbcp_def2svp_Compound_0.inp
|  1> #
|  2>  
|  3> #
|  4>  
|  5> 
|  6>                          ****END OF INPUT****
================================================================================
================================================================================



################################################################################


                                COMPOUND JOB  1 
Basename: bbcp_def2svp_Compound_1
NOTE: please remember that MaxCore and PAL settings will be ignored.

################################################################################

================================================================================
                                       INPUT FILE
================================================================================
NAME = bbcp_def2svp_Compound_1.inp
|  1>   ! BP86 def2-SVP VeryTightSCF defgrid3 NOAUTOSTART
|  2>   %id "15h"
|  3>   * xyzfile 0 1 xyz/15h_opt1.xyz
|  4> 
|  5>                          ****END OF INPUT****
================================================================================


***************************************
The coordinates will be read from file: xyz/15h_opt1.xyz
***************************************


Warning: RI is on but no J-basis has been assigned. Assigning Def2/J (nothing to worry about!)
================================================================================

cite the ECPs for Ru [Def2-ECP] as follows:
Ce-Yb(ecp-28): M. Dolg, H. Stoll, H.Preuss, J. Chem. Phys., 1989, 90, 1730-1734.
Y-Cd(ecp-28), Hf-Hg(ecp-46): D. Andrae,U. Haeussermann, M. Dolg, H. Stoll, H. Preuss, Theor. Chim. Acta, 1990, 77, 123-141.
In-Sb(ecp-28), Tl-Bi(ecp-46): B. Metz, H. Stoll, M. Dolg, J. Chem. Phys., 2000, 113, 2563-2569.
Te-Xe(ecp-28), Po-Rn(ecp-46): K. A. Peterson, D. Figgen, E. Goll, H. Stoll, M. Dolg, J. Chem. Phys., 2003, 119, 11113-11123.
Rb(ecp-28), Cs(ecp-46): T. Leininger, A. Nicklass, W. Kuechle, H. Stoll, M. Dolg, A. Bergner, Chem. Phys. Lett., 1996, 255, 274-280.
Sr(ecp-28), Ba(ecp-46): M. Kaupp, P. V. Schleyer, H. Stoll and H. Preuss, J. Chem. Phys., 1991, 94, 1360-1366.
La(ecp-46): M. Dolg, H. Stoll, A. Savin, H. Preuss, Theor. Chim. Acta, 1989, 75, 173-194.
Lu(ecp-28): X. Cao, M. Dolg, J. Chem. Phys., 2001, 115, 7348-7355.

ECP parameters for Ru [Def2-ECP] have been obtained from:
TURBOMOLE (7.0.2)

----- Orbital basis set information -----
Your calculation utilizes the basis: def2-SVP
   F. Weigend and R. Ahlrichs, Phys. Chem. Chem. Phys. 7, 3297 (2005).

----- AuxJ basis set information -----
Your calculation utilizes the auxiliary basis: def2/J
   H-Rn: F. Weigend, Phys. Chem. Chem. Phys. 8, 1057 (2006).
   Fr-Lr: K. Eichkorn, F. Weigend, O. Treutler, R. Ahlrichs; Theor. Chem. Acc. 97, 119 (1997).

================================================================================
                                        WARNINGS
                       Please study these warnings very carefully!
================================================================================



                       ****************************
                       * Single Point Calculation *
                       ****************************

---------------------------------
CARTESIAN COORDINATES (ANGSTROEM)
---------------------------------
  Ru    -0.009250   -0.255369   -0.188253
  P     -2.287465   -0.036639   -0.117031
  P      2.273521   -0.068306   -0.089874
  C     -2.956944   -0.565894    1.511662
  C     -4.685880   -2.655223   -3.108007
  C     -3.804293   -3.228195   -2.185996
  C     -3.104364   -2.417921   -1.296072
  C     -2.998475    1.642908   -0.297321
  C     -2.233854    2.649171   -0.894782
  C     -2.768308    3.926987   -1.074450
  C     -4.066432    4.209017   -0.648890
  C     -4.831760    3.210442   -0.040307
  C     -4.299728    1.933792    0.134458
  C      2.994918    1.591112   -0.380214
  C     -2.210516   -0.214077    2.645861
  C      2.379677    2.439706   -1.307194
  C      2.927772    3.691033   -1.590538
  C      4.089764    4.109829   -0.939602
  C      4.702718    3.272167   -0.005829
  C      4.158847    2.016977    0.271276
  C      3.319768   -1.142424   -1.152470
  C      2.995921   -2.505511   -1.212498
  C      3.753187   -3.383242   -1.984965
  C      4.837147   -2.904175   -2.726083
  C      5.157643   -1.548040   -2.683414
  C     -2.644326   -0.577458    3.920394
  C      4.405485   -0.670503   -1.897079
  C      2.892453   -0.469365    1.594838
  C      2.207587    0.101305    2.678807
  C      2.612288   -0.158380    3.987335
  C      3.702964   -0.997205    4.229250
  C      4.387406   -1.569312    3.156614
  C      3.985869   -1.306331    1.844482
  C     -3.828893   -1.300621    4.075519
  C     -4.576036   -1.656384    2.951651
  C     -4.142675   -1.291825    1.675081
  C     -3.287711   -1.026799   -1.297455
  C     -4.167941   -0.461110   -2.224292
  C     -4.861156   -1.272955   -3.127738
  H     -1.209911    2.421591   -1.199188
  H     -2.161927    4.708341   -1.541660
  H     -4.482889    5.211646   -0.784165
  H     -5.846954    3.429226    0.303274
  H     -4.902625    1.158354    0.615000
  H     -2.406232   -2.869433   -0.584279
  H     -3.657378   -4.312017   -2.167075
  H     -5.231334   -3.289014   -3.813225
  H     -5.543300   -0.816583   -3.850928
  H     -4.315886    0.620839   -2.249353
  H     -4.732638   -1.579954    0.801097
  H     -1.284586    0.355839    2.517900
  H     -2.052809   -0.297458    4.796876
  H     -4.168964   -1.589701    5.074234
  H     -5.504033   -2.223941    3.067602
  H      4.644366    1.366401    1.003666
  H      5.609382    3.598035    0.512211
  H      4.515807    5.094012   -1.155814
  H      2.439604    4.346400   -2.317704
  H      1.458810    2.111521   -1.795325
  H      2.140147   -2.880289   -0.643237
  H      4.669215    0.389143   -1.870012
  H      6.000651   -1.165052   -3.265870
  H      3.492422   -4.445123   -2.016473
  H      5.428132   -3.589577   -3.340546
  H      4.531620   -1.757298    1.012075
  H      1.356176    0.759938    2.481846
  H      2.072566    0.295319    4.823752
  H      4.019164   -1.204982    5.255660
  H      5.243109   -2.225823    3.339595
  H     -0.068892   -1.890706   -0.784068
  H     -0.004047   -1.353744   -1.490816
  H     -0.014466    0.537842   -1.521645
  H      0.014806    1.175738    0.600217

----------------------------
CARTESIAN COORDINATES (A.U.)
----------------------------
  NO LB      ZA    FRAG     MASS         X           Y           Z
   0 Ru   16.0000*   0   101.070   -0.017480   -0.482578   -0.355746
   1 P    15.0000    0    30.974   -4.322683   -0.069237   -0.221156
   2 P    15.0000    0    30.974    4.296332   -0.129080   -0.169838
   3 C     6.0000    0    12.011   -5.587814   -1.069384    2.856627
   4 C     6.0000    0    12.011   -8.855030   -5.017645   -5.873282
   5 C     6.0000    0    12.011   -7.189072   -6.100404   -4.130934
   6 C     6.0000    0    12.011   -5.866398   -4.569208   -2.449220
   7 C     6.0000    0    12.011   -5.666296    3.104646   -0.561856
   8 C     6.0000    0    12.011   -4.221372    5.006208   -1.690893
   9 C     6.0000    0    12.011   -5.231344    7.420931   -2.030416
  10 C     6.0000    0    12.011   -7.684443    7.953889   -1.226225
  11 C     6.0000    0    12.011   -9.130704    6.066856   -0.076170
  12 C     6.0000    0    12.011   -8.125309    3.654337    0.254089
  13 C     6.0000    0    12.011    5.659574    3.006766   -0.718500
  14 C     6.0000    0    12.011   -4.177271   -0.404547    4.999953
  15 C     6.0000    0    12.011    4.496937    4.610376   -2.470239
  16 C     6.0000    0    12.011    5.532687    6.975041   -3.005681
  17 C     6.0000    0    12.011    7.728534    7.766451   -1.775590
  18 C     6.0000    0    12.011    8.886849    6.183500   -0.011014
  19 C     6.0000    0    12.011    7.859082    3.811535    0.512637
  20 C     6.0000    0    12.011    6.273452   -2.158868   -2.177853
  21 C     6.0000    0    12.011    5.661470   -4.734730   -2.291289
  22 C     6.0000    0    12.011    7.092495   -6.393400   -3.751040
  23 C     6.0000    0    12.011    9.140884   -5.488095   -5.151550
  24 C     6.0000    0    12.011    9.746533   -2.925372   -5.070918
  25 C     6.0000    0    12.011   -4.997051   -1.091238    7.408470
  26 C     6.0000    0    12.011    8.325161   -1.267067   -3.584960
  27 C     6.0000    0    12.011    5.465943   -0.886971    3.013807
  28 C     6.0000    0    12.011    4.171735    0.191438    5.062212
  29 C     6.0000    0    12.011    4.936510   -0.299294    7.534972
  30 C     6.0000    0    12.011    6.997588   -1.884444    7.992125
  31 C     6.0000    0    12.011    8.290996   -2.965569    5.965135
  32 C     6.0000    0    12.011    7.532201   -2.468608    3.485565
  33 C     6.0000    0    12.011   -7.235559   -2.457818    7.701615
  34 C     6.0000    0    12.011   -8.647456   -3.130112    5.577812
  35 C     6.0000    0    12.011   -7.828520   -2.441196    3.165444
  36 C     6.0000    0    12.011   -6.212873   -1.940369   -2.451834
  37 C     6.0000    0    12.011   -7.876266   -0.871372   -4.203302
  38 C     6.0000    0    12.011   -9.186254   -2.405537   -5.910569
  39 H     1.0000    0     1.008   -2.286401    4.576144   -2.266136
  40 H     1.0000    0     1.008   -4.085450    8.897475   -2.913315
  41 H     1.0000    0     1.008   -8.471432    9.848585   -1.481856
  42 H     1.0000    0     1.008  -11.049141    6.480297    0.573105
  43 H     1.0000    0     1.008   -9.264618    2.188972    1.162182
  44 H     1.0000    0     1.008   -4.547119   -5.422443   -1.104126
  45 H     1.0000    0     1.008   -6.911443   -8.148532   -4.095178
  46 H     1.0000    0     1.008   -9.885788   -6.215336   -7.205950
  47 H     1.0000    0     1.008  -10.475319   -1.543118   -7.277199
  48 H     1.0000    0     1.008   -8.155843    1.173215   -4.250662
  49 H     1.0000    0     1.008   -8.943389   -2.985681    1.513854
  50 H     1.0000    0     1.008   -2.427516    0.672437    4.758142
  51 H     1.0000    0     1.008   -3.879246   -0.562114    9.064781
  52 H     1.0000    0     1.008   -7.878199   -3.004100    9.588912
  53 H     1.0000    0     1.008  -10.401114   -4.202640    5.796928
  54 H     1.0000    0     1.008    8.776580    2.582123    1.896655
  55 H     1.0000    0     1.008   10.600196    6.799300    0.967938
  56 H     1.0000    0     1.008    8.533639    9.626288   -2.184172
  57 H     1.0000    0     1.008    4.610183    8.213506   -4.379825
  58 H     1.0000    0     1.008    2.756751    3.990196   -3.392673
  59 H     1.0000    0     1.008    4.044292   -5.442957   -1.215542
  60 H     1.0000    0     1.008    8.823538    0.735374   -3.533811
  61 H     1.0000    0     1.008   11.339588   -2.201629   -6.171600
  62 H     1.0000    0     1.008    6.599720   -8.400065   -3.810582
  63 H     1.0000    0     1.008   10.257684   -6.783317   -6.312717
  64 H     1.0000    0     1.008    8.563520   -3.320811    1.912544
  65 H     1.0000    0     1.008    2.562801    1.436074    4.690009
  66 H     1.0000    0     1.008    3.916583    0.558073    9.115570
  67 H     1.0000    0     1.008    7.595120   -2.277086    9.931757
  68 H     1.0000    0     1.008    9.908040   -4.206195    6.310921
  69 H     1.0000    0     1.008   -0.130188   -3.572917   -1.481674
  70 H     1.0000    0     1.008   -0.007648   -2.558205   -2.817234
  71 H     1.0000    0     1.008   -0.027336    1.016374   -2.875492
  72 H     1.0000    0     1.008    0.027980    2.221822    1.134245
* core charge reduced due to ECP

--------------------------------
INTERNAL COORDINATES (ANGSTROEM)
--------------------------------
 Ru     0   0   0     0.000000000000     0.00000000     0.00000000
 P      1   0   0     2.289799166789     0.00000000     0.00000000
 P      1   2   0     2.292534582579   168.98421915     0.00000000
 C      2   1   3     1.838736457018   111.24219099   272.44986198
 C      2   1   3     4.642770558395   116.10790885   155.47541185
 C      5   2   1     1.398426233765    58.71306618    57.05574078
 C      6   5   2     1.392267854940   119.99361705     0.37037397
 C      2   1   3     1.832734611710   118.06462740    29.97699379
 C      8   2   1     1.397916053473   119.30840243    20.85873310
 C      9   8   2     1.396687743667   120.28108353   178.30603337
 C     10   9   8     1.394908157794   120.12180598     0.48175609
 C     11  10   9     1.397588127595   119.86767156     0.07825453
 C     12  11  10     1.394071541387   119.99464072   359.68824182
 C      3   1   2     1.832588005570   117.32647106   325.86722496
 C      4   2   1     1.402617907346   116.76292633    39.35299026
 C     14   3   1     1.399259090719   118.75244986   324.94466271
 C     16  14   3     1.395173769764   120.38052826   182.34025332
 C     17  16  14     1.396185697365   120.08609244   359.40262996
 C     18  17  16     1.396181093999   119.81692472     0.09150337
 C     19  18  17     1.395737673575   120.08347614     0.30911106
 C      3   1   2     1.837789455451   119.62820700   201.09075804
 C     21   3   1     1.402315371587   117.47688465   314.36089868
 C     22  21   3     1.393042617398   120.70740154   180.72890075
 C     23  22  21     1.397759296348   119.97535711   359.06887165
 C     24  23  22     1.394144516068   119.69904182     0.24497982
 C     15   4   2     1.394513919788   120.54057553   180.11178981
 C     25  24  23     1.397903599630   120.27559947     0.41544504
 C      3   1   2     1.839070310898   110.89331798    82.63733012
 C     28   3   1     1.403457563248   117.04096496   314.35337873
 C     29  28   3     1.394082091142   120.50094560   179.75955819
 C     30  29  28     1.397040798014   120.06745265   359.68827635
 C     31  30  29     1.395104369818   119.74255893     0.22739937
 C     32  31  30     1.397169130050   120.25695676     0.00000000
 C     26  15   4     1.396505718999   120.02205960     0.16919968
 C     34  26  15     1.395661473331   119.77792818   359.93972569
 C     35  34  26     1.396544594298   120.22651151     0.00000000
 C      7   6   5     1.403152523758   120.70857071     0.99347970
 C     37   7   6     1.397796424848   118.95802110   358.85114590
 C      5   2   1     1.393476349793    60.96288936   236.52326625
 H      9   8   2     1.092205840941   118.81050611   357.18604898
 H     10   9   8     1.093844494829   119.75807847   179.91424078
 H     11  10   9     1.094075388644   120.11922418   179.62919479
 H     12  11  10     1.093861107041   120.13848645   179.44588458
 H     13  12  11     1.093484740500   119.60956647   179.75641107
 H      7   6   5     1.094487292112   119.75396628   180.74305268
 H      6   5   2     1.093898315144   120.13394668   180.82628679
 H      5   2   1     1.093865955894   178.64521616    25.17121406
 H     39   5   2     1.093891241963   120.10883993   179.01856549
 H     38  37   7     1.092304749833   120.09062121   180.70628590
 H     36  35  34     1.093124977167   119.64073199   179.68493278
 H     15   4   2     1.094771792620   119.08813258     0.48915274
 H     26  15   4     1.093852593385   119.82909733   179.96707789
 H     34  26  15     1.093912959643   120.12944969   179.77967112
 H     35  34  26     1.093957600313   120.06722122   179.92306293
 H     20  19  18     1.093332147838   119.67465763   179.99590860
 H     19  18  17     1.093889383961   120.12456854   180.42416024
 H     18  17  16     1.094019002591   120.11978531   180.46106708
 H     17  16  14     1.093885150020   119.80399336   179.93061122
 H     16  14   3     1.092690831071   118.96971650     3.05072490
 H     22  21   3     1.094013217153   119.43009141     0.57792857
 H     27  25  24     1.092307693936   119.53856869   179.80208848
 H     25  24  23     1.093891397017   120.09507779   180.39193854
 H     23  22  21     1.093884568885   119.86992044   179.58280324
 H     24  23  22     1.093894069817   120.13597764   180.54411890
 H     33  32  31     1.092756133122   119.61554591   179.79266486
 H     29  28   3     1.094299988953   119.03803789   359.25543562
 H     30  29  28     1.093954127297   119.81359863   179.77627591
 H     31  30  29     1.093924321749   120.14452831   180.24130924
 H     32  31  30     1.093945227560   120.08313103   179.91144295
 H      1   2   8     1.741516545386    93.79961859   207.29775076
 H     70   1   2     0.889958587552    72.70015975    93.56676227
 H      1   2   8     1.551497931106    88.54164949   307.94249797
 H      1   2   8     1.634114537132    85.18044911    36.16620798

---------------------------
INTERNAL COORDINATES (A.U.)
---------------------------
 Ru     0   0   0     0.000000000000     0.00000000     0.00000000
 P      1   0   0     4.327093326912     0.00000000     0.00000000
 P      1   2   0     4.332262513617   168.98421915     0.00000000
 C      2   1   3     3.474708336221   111.24219099   272.44986198
 C      2   1   3     8.773564858000   116.10790885   155.47541185
 C      5   2   1     2.642642600306    58.71306618    57.05574078
 C      6   5   2     2.631004950899   119.99361705     0.37037397
 C      2   1   3     3.463366492290   118.06462740    29.97699379
 C      8   2   1     2.641678499276   119.30840243    20.85873310
 C      9   8   2     2.639357330135   120.28108353   178.30603337
 C     10   9   8     2.635994400203   120.12180598     0.48175609
 C     11  10   9     2.641058809175   119.86767156     0.07825453
 C     12  11  10     2.634413424314   119.99464072   359.68824182
 C      3   1   2     3.463089446836   117.32647106   325.86722496
 C      4   2   1     2.650563715419   116.76292633    39.35299026
 C     14   3   1     2.644216471859   118.75244986   324.94466271
 C     16  14   3     2.636496334084   120.38052826   182.34025332
 C     17  16  14     2.638408600119   120.08609244   359.40262996
 C     18  17  16     2.638399901017   119.81692472     0.09150337
 C     19  18  17     2.637561957853   120.08347614     0.30911106
 C      3   1   2     3.472918762611   119.62820700   201.09075804
 C     21   3   1     2.649992005688   117.47688465   314.36089868
 C     22  21   3     2.632469039763   120.70740154   180.72890075
 C     23  22  21     2.641382271240   119.97535711   359.06887165
 C     24  23  22     2.634551326476   119.69904182     0.24497982
 C     15   4   2     2.635249398340   120.54057553   180.11178981
 C     25  24  23     2.641654964924   120.27559947     0.41544504
 C      3   1   2     3.475339228623   110.89331798    82.63733012
 C     28   3   1     2.652150435120   117.04096496   314.35337873
 C     29  28   3     2.634433360463   120.50094560   179.75955819
 C     30  29  28     2.640024506161   120.06745265   359.68827635
 C     31  30  29     2.636365187192   119.74255893     0.22739937
 C     32  31  30     2.640267018563   120.25695676     0.00000000
 C     26  15   4     2.639013353363   120.02205960     0.16919968
 C     34  26  15     2.637417960261   119.77792818   359.93972569
 C     35  34  26     2.639086817030   120.22651151     0.00000000
 C      7   6   5     2.651573994022   120.70857071     0.99347970
 C     37   7   6     2.641452433936   118.95802110   358.85114590
 C      5   2   1     2.633288675205    60.96288936   236.52326625
 H      9   8   2     2.063969921248   118.81050611   357.18604898
 H     10   9   8     2.067066528325   119.75807847   179.91424078
 H     11  10   9     2.067502854400   120.11922418   179.62919479
 H     12  11  10     2.067097920856   120.13848645   179.44588458
 H     13  12  11     2.066386691166   119.60956647   179.75641107
 H      7   6   5     2.068281239149   119.75396628   180.74305268
 H      6   5   2     2.067168233980   120.13394668   180.82628679
 H      5   2   1     2.067107083859   178.64521616    25.17121406
 H     39   5   2     2.067154867606   120.10883993   179.01856549
 H     38  37   7     2.064156831966   120.09062121   180.70628590
 H     36  35  34     2.065706836995   119.64073199   179.68493278
 H     15   4   2     2.068818867193   119.08813258     0.48915274
 H     26  15   4     2.067081832377   119.82909733   179.96707789
 H     34  26  15     2.067195908072   120.12944969   179.77967112
 H     35  34  26     2.067280266713   120.06722122   179.92306293
 H     20  19  18     2.066098332825   119.67465763   179.99590860
 H     19  18  17     2.067151356490   120.12456854   180.42416024
 H     18  17  16     2.067396300202   120.11978531   180.46106708
 H     17  16  14     2.067143355500   119.80399336   179.93061122
 H     16  14   3     2.064886419771   118.96971650     3.05072490
 H     22  21   3     2.067385367309   119.43009141     0.57792857
 H     27  25  24     2.064162395515   119.53856869   179.80208848
 H     25  24  23     2.067155160615   120.09507779   180.39193854
 H     23  22  21     2.067142257315   119.86992044   179.58280324
 H     24  23  22     2.067160211474   120.13597764   180.54411890
 H     33  32  31     2.065009822763   119.61554591   179.79266486
 H     29  28   3     2.067927287474   119.03803789   359.25543562
 H     30  29  28     2.067273703664   119.81359863   179.77627591
 H     31  30  29     2.067217379341   120.14452831   180.24130924
 H     32  31  30     2.067256885599   120.08313103   179.91144295
 H      1   2   8     3.290989328473    93.79961859   207.29775076
 H     70   1   2     1.681778001004    72.70015975    93.56676227
 H      1   2   8     2.931906187136    88.54164949   307.94249797
 H      1   2   8     3.088028946640    85.18044911    36.16620798

---------------------
BASIS SET INFORMATION
---------------------
There are 4 groups of distinct atoms

 Group   1 Type Ru  : 7s6p5d1f contracted to 5s3p2d1f pattern {31111/411/41/1}
 Group   2 Type P   : 10s7p1d contracted to 4s3p1d pattern {5311/511/1}
 Group   3 Type C   : 7s4p1d contracted to 3s2p1d pattern {511/31/1}
 Group   4 Type H   : 4s1p contracted to 2s1p pattern {31/1}

Atom   0Ru   basis set group =>   1
Atom   1P    basis set group =>   2
Atom   2P    basis set group =>   2
Atom   3C    basis set group =>   3
Atom   4C    basis set group =>   3
Atom   5C    basis set group =>   3
Atom   6C    basis set group =>   3
Atom   7C    basis set group =>   3
Atom   8C    basis set group =>   3
Atom   9C    basis set group =>   3
Atom  10C    basis set group =>   3
Atom  11C    basis set group =>   3
Atom  12C    basis set group =>   3
Atom  13C    basis set group =>   3
Atom  14C    basis set group =>   3
Atom  15C    basis set group =>   3
Atom  16C    basis set group =>   3
Atom  17C    basis set group =>   3
Atom  18C    basis set group =>   3
Atom  19C    basis set group =>   3
Atom  20C    basis set group =>   3
Atom  21C    basis set group =>   3
Atom  22C    basis set group =>   3
Atom  23C    basis set group =>   3
Atom  24C    basis set group =>   3
Atom  25C    basis set group =>   3
Atom  26C    basis set group =>   3
Atom  27C    basis set group =>   3
Atom  28C    basis set group =>   3
Atom  29C    basis set group =>   3
Atom  30C    basis set group =>   3
Atom  31C    basis set group =>   3
Atom  32C    basis set group =>   3
Atom  33C    basis set group =>   3
Atom  34C    basis set group =>   3
Atom  35C    basis set group =>   3
Atom  36C    basis set group =>   3
Atom  37C    basis set group =>   3
Atom  38C    basis set group =>   3
Atom  39H    basis set group =>   4
Atom  40H    basis set group =>   4
Atom  41H    basis set group =>   4
Atom  42H    basis set group =>   4
Atom  43H    basis set group =>   4
Atom  44H    basis set group =>   4
Atom  45H    basis set group =>   4
Atom  46H    basis set group =>   4
Atom  47H    basis set group =>   4
Atom  48H    basis set group =>   4
Atom  49H    basis set group =>   4
Atom  50H    basis set group =>   4
Atom  51H    basis set group =>   4
Atom  52H    basis set group =>   4
Atom  53H    basis set group =>   4
Atom  54H    basis set group =>   4
Atom  55H    basis set group =>   4
Atom  56H    basis set group =>   4
Atom  57H    basis set group =>   4
Atom  58H    basis set group =>   4
Atom  59H    basis set group =>   4
Atom  60H    basis set group =>   4
Atom  61H    basis set group =>   4
Atom  62H    basis set group =>   4
Atom  63H    basis set group =>   4
Atom  64H    basis set group =>   4
Atom  65H    basis set group =>   4
Atom  66H    basis set group =>   4
Atom  67H    basis set group =>   4
Atom  68H    basis set group =>   4
Atom  69H    basis set group =>   4
Atom  70H    basis set group =>   4
Atom  71H    basis set group =>   4
Atom  72H    basis set group =>   4
---------------------------------
AUXILIARY/J BASIS SET INFORMATION
---------------------------------
There are 4 groups of distinct atoms

 Group   1 Type Ru  : 11s5p5d3f3g contracted to 8s5p5d2f3g pattern {41111111/11111/11111/21/111}
 Group   2 Type P   : 14s5p5d2f1g contracted to 8s4p3d1f1g pattern {71111111/2111/311/2/1}
 Group   3 Type C   : 12s5p4d2f1g contracted to 6s4p3d1f1g pattern {711111/2111/211/2/1}
 Group   4 Type H   : 5s2p1d contracted to 3s1p1d pattern {311/2/1}

Atom   0Ru   basis set group =>   1
Atom   1P    basis set group =>   2
Atom   2P    basis set group =>   2
Atom   3C    basis set group =>   3
Atom   4C    basis set group =>   3
Atom   5C    basis set group =>   3
Atom   6C    basis set group =>   3
Atom   7C    basis set group =>   3
Atom   8C    basis set group =>   3
Atom   9C    basis set group =>   3
Atom  10C    basis set group =>   3
Atom  11C    basis set group =>   3
Atom  12C    basis set group =>   3
Atom  13C    basis set group =>   3
Atom  14C    basis set group =>   3
Atom  15C    basis set group =>   3
Atom  16C    basis set group =>   3
Atom  17C    basis set group =>   3
Atom  18C    basis set group =>   3
Atom  19C    basis set group =>   3
Atom  20C    basis set group =>   3
Atom  21C    basis set group =>   3
Atom  22C    basis set group =>   3
Atom  23C    basis set group =>   3
Atom  24C    basis set group =>   3
Atom  25C    basis set group =>   3
Atom  26C    basis set group =>   3
Atom  27C    basis set group =>   3
Atom  28C    basis set group =>   3
Atom  29C    basis set group =>   3
Atom  30C    basis set group =>   3
Atom  31C    basis set group =>   3
Atom  32C    basis set group =>   3
Atom  33C    basis set group =>   3
Atom  34C    basis set group =>   3
Atom  35C    basis set group =>   3
Atom  36C    basis set group =>   3
Atom  37C    basis set group =>   3
Atom  38C    basis set group =>   3
Atom  39H    basis set group =>   4
Atom  40H    basis set group =>   4
Atom  41H    basis set group =>   4
Atom  42H    basis set group =>   4
Atom  43H    basis set group =>   4
Atom  44H    basis set group =>   4
Atom  45H    basis set group =>   4
Atom  46H    basis set group =>   4
Atom  47H    basis set group =>   4
Atom  48H    basis set group =>   4
Atom  49H    basis set group =>   4
Atom  50H    basis set group =>   4
Atom  51H    basis set group =>   4
Atom  52H    basis set group =>   4
Atom  53H    basis set group =>   4
Atom  54H    basis set group =>   4
Atom  55H    basis set group =>   4
Atom  56H    basis set group =>   4
Atom  57H    basis set group =>   4
Atom  58H    basis set group =>   4
Atom  59H    basis set group =>   4
Atom  60H    basis set group =>   4
Atom  61H    basis set group =>   4
Atom  62H    basis set group =>   4
Atom  63H    basis set group =>   4
Atom  64H    basis set group =>   4
Atom  65H    basis set group =>   4
Atom  66H    basis set group =>   4
Atom  67H    basis set group =>   4
Atom  68H    basis set group =>   4
Atom  69H    basis set group =>   4
Atom  70H    basis set group =>   4
Atom  71H    basis set group =>   4
Atom  72H    basis set group =>   4
-------------------------
ECP PARAMETER INFORMATION
-------------------------

 Group 1, Type Ru ECP Def2-ECP (replacing 28 core electrons, lmax=3)

Atom   0Ru   ECP group =>   1

------------------------------------------------------------------------------
                             ORCA STARTUP CALCULATIONS
                           -- RI-GTO INTEGRALS CHOSEN --
------------------------------------------------------------------------------
------------------------------------------------------------------------------
                   ___                                                        
                  /   \      - P O W E R E D   B Y -                         
                 /     \                                                     
                 |  |  |   _    _      __       _____    __    __             
                 |  |  |  | |  | |    /  \     |  _  \  |  |  /  |          
                  \  \/   | |  | |   /    \    | | | |  |  | /  /          
                 / \  \   | |__| |  /  /\  \   | |_| |  |  |/  /          
                |  |  |   |  __  | /  /__\  \  |    /   |      \           
                |  |  |   | |  | | |   __   |  |    \   |  |\   \          
                \     /   | |  | | |  |  |  |  | |\  \  |  | \   \       
                 \___/    |_|  |_| |__|  |__|  |_| \__\ |__|  \__/        
                                                                              
                      - O R C A' S   B I G   F R I E N D -                    
                                      &                                       
                       - I N T E G R A L  F E E D E R -                       
                                                                              
 v1 FN, 2020, v2 2021, v3 2022-2024                                           
------------------------------------------------------------------------------


----------------------
SHARK INTEGRAL PACKAGE
----------------------

Number of atoms                             ...     73
Number of basis functions                   ...    741
Number of shells                            ...    345
Maximum angular momentum                    ...      3
Integral batch strategy                     ... SHARK/LIBINT Hybrid
RI-J (if used) integral strategy            ... SPLIT-RIJ (Revised 2003 algorithm where possible)
Printlevel                                  ...      1
Contraction scheme used                     ... SEGMENTED contraction
Prescreening option                         ... SCHWARTZ
   Thresh                                   ... 1.000e-12
   Tcut                                     ... 1.000e-14
   Tpresel                                  ... 1.000e-14 
Coulomb Range Separation                    ... NOT USED
Exchange Range Separation                   ... NOT USED
Multipole approximations                    ... NOT USED
Finite Nucleus Model                        ... NOT USED
CABS basis                                  ... NOT available
Auxiliary Coulomb fitting basis             ... AVAILABLE
   # of basis functions in Aux-J            ...   2329
   # of shells in Aux-J                     ...    767
   Maximum angular momentum in Aux-J        ...      4
Auxiliary J/K fitting basis                 ... NOT available
Auxiliary Correlation fitting basis         ... NOT available
Auxiliary 'external' fitting basis          ... NOT available

Checking pre-screening integrals            ... done (  0.0 sec) Dimension = 345
   => SHARK Basis and OBASIS are compatible. Storing Pre-screening
Shell pair information
Shell pair cut-off parameter TPreSel        ...   1.0e-14
Total number of shell pairs                 ...     59685
Shell pairs after pre-screening             ...     38428
Total number of primitive shell pairs       ...    216784
Primitive shell pairs kept                  ...     83821
          la=0 lb=0:  12075 shell pairs
          la=1 lb=0:  14425 shell pairs
          la=1 lb=1:   4412 shell pairs
          la=2 lb=0:   4348 shell pairs
          la=2 lb=1:   2551 shell pairs
          la=2 lb=2:    363 shell pairs
          la=3 lb=0:    144 shell pairs
          la=3 lb=1:     83 shell pairs
          la=3 lb=2:     26 shell pairs
          la=3 lb=3:      1 shell pairs

Checking whether 4 symmetric matrices of dimension 741 fit in memory
:Max Core in MB      =   4096.00
 MB in use           =     49.68
 MB left             =   4046.32
 MB needed           =      8.39
 Data fit in memory  = YES
Calculating RI/J V-Matrix + Cholesky decomp.... done (  0.2 sec)
Calculating Nuclear repulsion               ... done (  0.0 sec) ENN=   4820.547114648989 Eh

Diagonalization of the overlap matrix:
Smallest eigenvalue                        ... 2.651e-04
Time for diagonalization                   ...    0.061 sec
Threshold for overlap eigenvalues          ... 1.000e-07
Number of eigenvalues below threshold      ... 0
Time for construction of square roots      ...    0.034 sec
Total time needed                          ...    0.097 sec

-------------------
DFT GRID GENERATION
-------------------

General Integration Accuracy     IntAcc      ... 4.959
Radial Grid Type                 RadialGrid  ... OptM3 with GC (2021)
Angular Grid (max. ang.)         AngularGrid ... 6 (Lebedev-590)
Angular grid pruning method      GridPruning ... 4 (adaptive)
Weight generation scheme         WeightScheme... mBecke (2022)
Basis function cutoff            BFCut       ... 1.0000e-12
Integration weight cutoff        WCut        ... 1.0000e-14
Partially contracted basis set               ... off
Rotationally invariant grid construction     ... off
Angular grids for H and He will be reduced by one unit

Total number of grid points                  ...   843040
Total number of batches                      ...    13208
Average number of points per batch           ...       63
Average number of grid points per atom       ...    11548
Grids setup in  13.8 sec
Initializing property integral containers    ... done (  0.0 sec)

SHARK setup successfully completed in  15.7 seconds

Maximum memory used throughout the entire STARTUP-calculation: 313.0 MB
-------------------------------------------------------------------------------
                                 ORCA GUESS
                   Start orbitals & Density for SCF / CASSCF
-------------------------------------------------------------------------------

------------
SCF SETTINGS
------------
Hamiltonian:
 Density Functional     Method          .... DFT(GTOs)
 Exchange Functional    Exchange        .... B88
   X-Alpha parameter    XAlpha          ....  0.666667
   Becke's b parameter  XBeta           ....  0.004200
 Correlation Functional Correlation     .... P86
 LDA part of GGA corr.  LDAOpt          .... PW91-LDA
 Gradients option       PostSCFGGA      .... off
   NL short-range parameter             ....  4.400000
 RI-approximation to the Coulomb term is turned on
   Number of AuxJ basis functions       .... 2329


General Settings:
 Integral files         IntName         .... bbcp_def2svp_Compound_1
 Hartree-Fock type      HFTyp           .... RHF
 Total Charge           Charge          ....    0
 Multiplicity           Mult            ....    1
 Number of Electrons    NEL             ....  296
 Basis Dimension        Dim             ....  741
 Nuclear Repulsion      ENuc            ....   4820.5471146490 Eh

Convergence Acceleration:
 AO-DIIS                CNVDIIS         .... on
   Start iteration      DIISMaxIt       ....    12
   Startup error        DIISStart       ....  0.200000
   # of expansion vecs  DIISMaxEq       ....     5
   Bias factor          DIISBfac        ....   1.050
   Max. coefficient     DIISMaxC        ....  10.000
 MO-DIIS                CNVKDIIS        .... off
 Trust-Rad. Augm. Hess. CNVTRAH         .... auto
   Auto Start mean grad. ratio tolernc. ....  1.125000
   Auto Start start iteration           ....    50
   Auto Start num. interpolation iter.  ....    10
   Max. Number of Micro iterations      ....    24
   Max. Number of Macro iterations      .... Maxiter - #DIIS iter
   Number of Davidson start vectors     ....     2
   Converg. threshold    (grad. norm)   ....   2.000e-06
   Grad. Scal. Fac. for Micro threshold ....   0.100
   Minimum threshold for Micro iter.    ....   1.000e-02
   NR start threshold (gradient norm)   ....   1.000e-04
   Initial trust radius                 ....   0.400
   Minimum AH scaling param. (alpha)    ....   1.000
   Maximum AH scaling param. (alpha)    .... 1000.000
   Quad. conv. algorithm                .... NR
   White noise on init. David. guess    .... on
   Maximum white noise                  ....   0.010
   Pseudo random numbers                .... off
   Inactive MOs                         .... canonical
   Orbital update algorithm             .... Taylor
   Preconditioner                       .... Diag
   Full preconditioner red. dimension   ....   250
 SOSCF                 CNVSOSCF           .... on
   Start iteration     SOSCFMaxIt         ....   150
   Startup grad/error  SOSCFStart         ....  0.003300
   Hessian update      SOSCFHessUp        .... L-BFGS
   Autom. constraints  SOSCFAutoConstrain .... off
 Level Shifting         CNVShift        .... on
   Level shift para.    LevelShift      ....    0.2500
   Turn off err/grad.   ShiftErr        ....    0.0010
 Zerner damping         CNVZerner       .... off
 Static damping         CNVDamp         .... on
   Fraction old density DampFac         ....    0.7000
   Max. Damping (<1)    DampMax         ....    0.9800
   Min. Damping (>=0)   DampMin         ....    0.0000
   Turn off err/grad.   DampErr         ....    0.1000

SCF Procedure:
 Maximum # iterations   MaxIter         ....   125
 SCF integral mode      SCFMode         .... Direct
   Integral package                     .... SHARK and LIBINT hybrid scheme
 Reset frequency        DirectResetFreq ....    20
 Integral Threshold     Thresh          ....  1.000e-12 Eh
 Primitive CutOff       TCut            ....  1.000e-14 Eh

Convergence Tolerance:
 Convergence Check Mode ConvCheckMode   .... Total+1el-Energy
 Convergence forced     ConvForced      .... 0
 Energy Change          TolE            ....  1.000e-09 Eh
 1-El. energy change                    ....  1.000e-06 Eh
 Orbital Gradient       TolG            ....  2.000e-06
 Orbital Rotation angle TolX            ....  2.000e-06
 DIIS Error             TolErr          ....  1.000e-08

------------------------------
INITIAL GUESS: MODEL POTENTIAL
------------------------------
Loading Hartree-Fock densities                     ... done
Atomic calculation to generate a density for atom 0 (Ru with ECP)
  Multiplicity assumed   :    5
  Atomic configuration   : 1s2 2s2 2p6 3s2 3p6 4s2 3d10 4p6 5s2 4d6 
  Number of open shells  : 1
  Command: /cluster/projects/nn14654k/ylvaos/orca_6_1_1_linux_x86-64_shared_openmpi418/orca bbcp_def2svp_Compound_1_atom44.inp "" > bbcp_def2svp_Compound_1_atom44.out
Returned from the atomic calculation with res=0
Calculating cut-offs                               ... done
Initializing the effective Hamiltonian             ... done
Setting up the integral package (SHARK)            ... done
Starting the Coulomb interaction                   ... done (   2.8 sec)
Making the grid                                    ... done (   1.3 sec)
Mapping shells                                     ... done
Starting the XC term evaluation                    ... done (   1.2 sec)
  promolecular density results
     # of electrons  =    323.974471896
     EX              =   -369.811842044
     EC              =    -12.996460028
     EX+EC           =   -382.808302073
Transforming the Hamiltonian                       ... done (   0.0 sec)
Diagonalizing the Hamiltonian                      ... done (   0.1 sec)
Back transforming the eigenvectors                 ... done (   0.0 sec)
Now organizing SCF variables                       ... done
                      ------------------
                      INITIAL GUESS DONE (   7.1 sec)
                      ------------------
             **** ENERGY FILE WAS UPDATED (bbcp_def2svp_Compound_1.en.tmp) ****
Finished Guess after   7.2 sec
Maximum memory used throughout the entire GUESS-calculation: 87.8 MB

-------------------------------------------------------------------------------------------
                                      ORCA LEAN-SCF
                              memory conserving SCF solver
-------------------------------------------------------------------------------------------

----------------------------------------D-I-I-S--------------------------------------------
Iteration    Energy (Eh)           Delta-E    RMSDP     MaxDP     DIISErr   Damp  Time(sec)
-------------------------------------------------------------------------------------------
               ***  Starting incremental Fock matrix formation  ***
    1    -2168.2746955775255628     0.00e+00  1.40e-03  7.47e-02  4.72e-01  0.700  15.7
Warning: op=0 Small HOMO/LUMO gap (   0.083) - skipping pre-diagonalization
         Will do a full diagonalization
    2    -2168.5732452587180887    -2.99e-01  9.92e-04  3.78e-02  3.22e-01  0.700  13.4
    3    -2168.6889916271411494    -1.16e-01  4.90e-04  2.10e-02  2.22e-01  0.700  13.1
                               ***Turning on AO-DIIS***
    4    -2168.7519973611524620    -6.30e-02  2.37e-04  1.65e-02  1.55e-01  0.700  12.9
    5    -2168.7980679468664675    -4.61e-02  1.34e-04  1.01e-02  1.08e-01  0.700  12.1
    6    -2168.8303471815133889    -3.23e-02  8.45e-05  8.65e-03  7.61e-02  0.700  11.9
    7    -2168.8528477850268246    -2.25e-02  1.85e-04  1.94e-02  5.32e-02  0.000  11.3
                              *** Initializing SOSCF ***
---------------------------------------S-O-S-C-F--------------------------------------
Iteration    Energy (Eh)           Delta-E    RMSDP     MaxDP     MaxGrad    Time(sec)
--------------------------------------------------------------------------------------
    8    -2168.9051434790144413    -5.23e-02  2.75e-05  1.72e-03  6.62e-04    12.1
               *** Restarting incremental Fock matrix formation ***
    9    -2168.9051503426962881    -6.86e-06  4.73e-05  6.05e-03  5.43e-04    15.4
   10    -2168.9050261257716556     1.24e-04  3.84e-05  5.65e-03  2.36e-03    11.3
   11    -2168.9051570980072938    -1.31e-04  2.42e-05  1.72e-03  1.64e-04    11.3
   12    -2168.9051428859756925     1.42e-05  1.70e-05  1.05e-03  2.82e-04    10.9
   13    -2168.9051606629227535    -1.78e-05  1.09e-05  3.90e-04  7.21e-05    10.6
   14    -2168.9051572910848336     3.37e-06  7.60e-06  3.37e-04  1.36e-04    10.4
   15    -2168.9051615271664559    -4.24e-06  2.33e-06  9.48e-05  2.00e-05    10.1
   16    -2168.9051613476904095     1.79e-07  1.64e-06  7.00e-05  4.84e-05     9.6
   17    -2168.9051615638136354    -2.16e-07  7.03e-07  5.07e-05  3.98e-06     9.4
   18    -2168.9051615533699078     1.04e-08  4.47e-07  2.71e-05  7.75e-06     9.0
   19    -2168.9051615667303849    -1.34e-08  2.04e-07  1.95e-05  1.11e-06     9.0
   20    -2168.9051615640828459     2.65e-09  1.42e-07  1.15e-05  2.90e-06     8.5
   21    -2168.9051615665448480    -2.46e-09  8.67e-08  8.80e-06  6.23e-07     8.5
   22    -2168.9051615681173644    -1.57e-09  5.62e-08  5.16e-06  1.19e-06     8.2
   23    -2168.9051615666330690     1.48e-09  3.93e-08  3.17e-06  2.33e-07     7.9
                  *** Gradient check signals convergence ***

               *****************************************************
               *                     SUCCESS                       *
               *           SCF CONVERGED AFTER  23 CYCLES          *
               *****************************************************

             **** ENERGY FILE WAS UPDATED (bbcp_def2svp_Compound_1.en.tmp) ****

----------------
TOTAL SCF ENERGY
----------------

Total Energy       :      -2168.90516156722879 Eh          -59018.90991 eV

Components:
Nuclear Repulsion  :       4820.54711464898901 Eh          131173.75573 eV
Electronic Energy  :      -6989.45227621621780 Eh         -190192.66564 eV
One Electron Energy:     -12589.98404713146556 Eh         -342590.88291 eV
Two Electron Energy:       5600.53177091524776 Eh          152398.21726 eV

Virial components:
Potential Energy   :      -4258.17361691828137 Eh         -115870.79487 eV
Kinetic Energy     :       2089.26845535105258 Eh           56851.88496 eV
Virial Ratio       :          2.03811702895921

DFT components:
N(Alpha)           :      148.000009856754 electrons
N(Beta)            :      148.000009856754 electrons
N(Total)           :      296.000019713509 electrons
E(X)               :     -253.470328654761 Eh       
E(C)               :      -11.103521180050 Eh       
E(XC)              :     -264.573849834811 Eh       

---------------
SCF CONVERGENCE
---------------

  Last Energy change         ...   -1.4843e-09  Tolerance :   1.0000e-09
  Last MAX-Density change    ...    3.1673e-06  Tolerance :   1.0000e-08
  Last RMS-Density change    ...    3.9264e-08  Tolerance :   1.0000e-09
  Last DIIS Error            ...    6.6184e-04  Tolerance :   1.0000e-08
  Last Orbital Gradient      ...    2.3268e-07  Tolerance :   2.0000e-06
  Last Orbital Rotation      ...    7.7761e-07  Tolerance :   2.0000e-06


----------------
ORBITAL ENERGIES
----------------

  NO   OCC          E(Eh)            E(eV) 
   0   2.0000     -76.367595     -2078.0679 
   1   2.0000     -76.367430     -2078.0634 
   2   2.0000      -9.922226      -269.9975 
   3   2.0000      -9.921769      -269.9851 
   4   2.0000      -9.920373      -269.9471 
   5   2.0000      -9.920202      -269.9424 
   6   2.0000      -9.920186      -269.9420 
   7   2.0000      -9.920177      -269.9417 
   8   2.0000      -9.919935      -269.9352 
   9   2.0000      -9.919755      -269.9303 
  10   2.0000      -9.919734      -269.9297 
  11   2.0000      -9.919471      -269.9225 
  12   2.0000      -9.919401      -269.9206 
  13   2.0000      -9.919223      -269.9158 
  14   2.0000      -9.919122      -269.9130 
  15   2.0000      -9.918924      -269.9077 
  16   2.0000      -9.918889      -269.9067 
  17   2.0000      -9.918707      -269.9017 
  18   2.0000      -9.918693      -269.9014 
  19   2.0000      -9.918662      -269.9005 
  20   2.0000      -9.918624      -269.8995 
  21   2.0000      -9.918595      -269.8987 
  22   2.0000      -9.918507      -269.8963 
  23   2.0000      -9.918440      -269.8945 
  24   2.0000      -9.918414      -269.8938 
  25   2.0000      -9.918362      -269.8923 
  26   2.0000      -9.918264      -269.8897 
  27   2.0000      -9.918228      -269.8887 
  28   2.0000      -9.918222      -269.8885 
  29   2.0000      -9.917840      -269.8781 
  30   2.0000      -9.917669      -269.8735 
  31   2.0000      -9.917611      -269.8719 
  32   2.0000      -9.917479      -269.8683 
  33   2.0000      -9.917362      -269.8652 
  34   2.0000      -9.916987      -269.8549 
  35   2.0000      -9.915761      -269.8216 
  36   2.0000      -9.915548      -269.8158 
  37   2.0000      -9.913685      -269.7651 
  38   2.0000      -6.331302      -172.2835 
  39   2.0000      -6.331179      -172.2801 
  40   2.0000      -4.552938      -123.8918 
  41   2.0000      -4.552823      -123.8886 
  42   2.0000      -4.552709      -123.8855 
  43   2.0000      -4.552564      -123.8816 
  44   2.0000      -4.550092      -123.8143 
  45   2.0000      -4.549979      -123.8112 
  46   2.0000      -2.825865       -76.8957 
  47   2.0000      -1.708855       -46.5003 
  48   2.0000      -1.705684       -46.4140 
  49   2.0000      -1.702979       -46.3404 
  50   2.0000      -0.782624       -21.2963 
  51   2.0000      -0.782164       -21.2838 
  52   2.0000      -0.774213       -21.0674 
  53   2.0000      -0.773987       -21.0612 
  54   2.0000      -0.773199       -21.0398 
  55   2.0000      -0.772537       -21.0218 
  56   2.0000      -0.701961       -19.1013 
  57   2.0000      -0.701086       -19.0775 
  58   2.0000      -0.673836       -18.3360 
  59   2.0000      -0.673583       -18.3291 
  60   2.0000      -0.672576       -18.3017 
  61   2.0000      -0.672359       -18.2958 
  62   2.0000      -0.670946       -18.2574 
  63   2.0000      -0.669999       -18.2316 
  64   2.0000      -0.668038       -18.1782 
  65   2.0000      -0.667894       -18.1743 
  66   2.0000      -0.666928       -18.1480 
  67   2.0000      -0.666355       -18.1324 
  68   2.0000      -0.592089       -16.1116 
  69   2.0000      -0.589621       -16.0444 
  70   2.0000      -0.547535       -14.8992 
  71   2.0000      -0.547089       -14.8871 
  72   2.0000      -0.544677       -14.8214 
  73   2.0000      -0.543969       -14.8022 
  74   2.0000      -0.543646       -14.7934 
  75   2.0000      -0.541747       -14.7417 
  76   2.0000      -0.534351       -14.5404 
  77   2.0000      -0.533949       -14.5295 
  78   2.0000      -0.532853       -14.4997 
  79   2.0000      -0.532010       -14.4767 
  80   2.0000      -0.505498       -13.7553 
  81   2.0000      -0.503045       -13.6885 
  82   2.0000      -0.468859       -12.7583 
  83   2.0000      -0.468051       -12.7363 
  84   2.0000      -0.467440       -12.7197 
  85   2.0000      -0.466225       -12.6866 
  86   2.0000      -0.446987       -12.1631 
  87   2.0000      -0.443911       -12.0794 
  88   2.0000      -0.421163       -11.4604 
  89   2.0000      -0.411520       -11.1980 
  90   2.0000      -0.411229       -11.1901 
  91   2.0000      -0.409295       -11.1375 
  92   2.0000      -0.408503       -11.1159 
  93   2.0000      -0.407524       -11.0893 
  94   2.0000      -0.406662       -11.0658 
  95   2.0000      -0.400086       -10.8869 
  96   2.0000      -0.399204       -10.8629 
  97   2.0000      -0.398547       -10.8450 
  98   2.0000      -0.397317       -10.8115 
  99   2.0000      -0.392783       -10.6882 
 100   2.0000      -0.391832       -10.6623 
 101   2.0000      -0.378746       -10.3062 
 102   2.0000      -0.376604       -10.2479 
 103   2.0000      -0.376370       -10.2416 
 104   2.0000      -0.375995       -10.2313 
 105   2.0000      -0.375920       -10.2293 
 106   2.0000      -0.373647       -10.1675 
 107   2.0000      -0.368826       -10.0363 
 108   2.0000      -0.368010       -10.0140 
 109   2.0000      -0.365807        -9.9541 
 110   2.0000      -0.364042        -9.9061 
 111   2.0000      -0.343305        -9.3418 
 112   2.0000      -0.337032        -9.1711 
 113   2.0000      -0.335393        -9.1265 
 114   2.0000      -0.334403        -9.0996 
 115   2.0000      -0.331172        -9.0117 
 116   2.0000      -0.329944        -8.9782 
 117   2.0000      -0.327475        -8.9111 
 118   2.0000      -0.324108        -8.8194 
 119   2.0000      -0.308026        -8.3818 
 120   2.0000      -0.305869        -8.3231 
 121   2.0000      -0.305709        -8.3188 
 122   2.0000      -0.304547        -8.2871 
 123   2.0000      -0.303933        -8.2704 
 124   2.0000      -0.301847        -8.2137 
 125   2.0000      -0.297803        -8.1036 
 126   2.0000      -0.291910        -7.9433 
 127   2.0000      -0.291614        -7.9352 
 128   2.0000      -0.289331        -7.8731 
 129   2.0000      -0.288224        -7.8430 
 130   2.0000      -0.269559        -7.3351 
 131   2.0000      -0.257867        -7.0169 
 132   2.0000      -0.242336        -6.5943 
 133   2.0000      -0.240343        -6.5401 
 134   2.0000      -0.239836        -6.5263 
 135   2.0000      -0.237790        -6.4706 
 136   2.0000      -0.236644        -6.4394 
 137   2.0000      -0.234269        -6.3748 
 138   2.0000      -0.232921        -6.3381 
 139   2.0000      -0.230720        -6.2782 
 140   2.0000      -0.229585        -6.2473 
 141   2.0000      -0.228240        -6.2107 
 142   2.0000      -0.226454        -6.1621 
 143   2.0000      -0.218936        -5.9575 
 144   2.0000      -0.206766        -5.6264 
 145   2.0000      -0.179086        -4.8732 
 146   2.0000      -0.172107        -4.6833 
 147   2.0000      -0.166633        -4.5343 
 148   0.0000      -0.077236        -2.1017 
 149   0.0000      -0.059827        -1.6280 
 150   0.0000      -0.056559        -1.5391 
 151   0.0000      -0.053778        -1.4634 
 152   0.0000      -0.053539        -1.4569 
 153   0.0000      -0.051152        -1.3919 
 154   0.0000      -0.048843        -1.3291 
 155   0.0000      -0.046170        -1.2563 
 156   0.0000      -0.041955        -1.1417 
 157   0.0000      -0.036766        -1.0005 
 158   0.0000      -0.035931        -0.9777 
*Only the first 10 virtual orbitals were printed.

                    ********************************
                    * MULLIKEN POPULATION ANALYSIS *
                    ********************************

-----------------------
MULLIKEN ATOMIC CHARGES
-----------------------
   0 Ru:   -0.470034
   1 P :    0.393458
   2 P :    0.389122
   3 C :   -0.091001
   4 C :    0.009249
   5 C :    0.006282
   6 C :   -0.007089
   7 C :   -0.077643
   8 C :    0.028681
   9 C :    0.005494
  10 C :    0.009175
  11 C :    0.009227
  12 C :   -0.002475
  13 C :   -0.088481
  14 C :    0.013017
  15 C :    0.031107
  16 C :    0.004554
  17 C :    0.009722
  18 C :    0.009423
  19 C :   -0.004033
  20 C :   -0.092958
  21 C :   -0.000970
  22 C :    0.008180
  23 C :    0.009625
  24 C :    0.009804
  25 C :    0.011924
  26 C :   -0.002778
  27 C :   -0.103410
  28 C :    0.010759
  29 C :    0.008429
  30 C :    0.009802
  31 C :    0.009011
  32 C :   -0.008079
  33 C :    0.009603
  34 C :    0.008440
  35 C :   -0.013604
  36 C :   -0.087291
  37 C :   -0.002094
  38 C :    0.008001
  39 H :    0.012554
  40 H :   -0.003495
  41 H :   -0.000485
  42 H :   -0.003190
  43 H :   -0.005794
  44 H :    0.010229
  45 H :   -0.002430
  46 H :   -0.001123
  47 H :   -0.002978
  48 H :    0.013978
  49 H :    0.013898
  50 H :    0.013703
  51 H :   -0.002002
  52 H :   -0.000245
  53 H :   -0.002864
  54 H :    0.005608
  55 H :   -0.002846
  56 H :   -0.000595
  57 H :   -0.003582
  58 H :    0.011479
  59 H :    0.006528
  60 H :    0.012921
  61 H :   -0.002901
  62 H :   -0.002054
  63 H :   -0.000516
  64 H :    0.012820
  65 H :    0.019338
  66 H :   -0.001991
  67 H :   -0.000488
  68 H :   -0.002632
  69 H :   -0.021428
  70 H :    0.073067
  71 H :   -0.015252
  72 H :   -0.097384
Sum of atomic charges:   -0.0000000

--------------------------------
MULLIKEN REDUCED ORBITAL CHARGES
--------------------------------
  0 Rus       :     2.558946  s :     2.558946
      pz      :     2.121353  p :     6.526877
      px      :     2.184701
      py      :     2.220823
      dz2     :     1.369514  d :     7.378100
      dxz     :     1.794343
      dyz     :     1.235175
      dx2y2   :     1.208024
      dxy     :     1.771042
      f0      :     0.000604  f :     0.006111
      f+1     :     0.000843
      f-1     :     0.001068
      f+2     :     0.001476
      f-2     :     0.000014
      f+3     :     0.001330
      f-3     :     0.000776

  1 P s       :     5.379485  s :     5.379485
      pz      :     2.871985  p :     8.972715
      px      :     3.201447
      py      :     2.899283
      dz2     :     0.044742  d :     0.254342
      dxz     :     0.063428
      dyz     :     0.044935
      dx2y2   :     0.037040
      dxy     :     0.064197

  2 P s       :     5.376698  s :     5.376698
      pz      :     2.880247  p :     8.979979
      px      :     3.201808
      py      :     2.897924
      dz2     :     0.048395  d :     0.254202
      dxz     :     0.061076
      dyz     :     0.041189
      dx2y2   :     0.036267
      dxy     :     0.067274

  3 C s       :     3.070948  s :     3.070948
      pz      :     0.998528  p :     2.985563
      px      :     0.978411
      py      :     1.008624
      dz2     :     0.008204  d :     0.034489
      dxz     :     0.009784
      dyz     :     0.005437
      dx2y2   :     0.005927
      dxy     :     0.005138

  4 C s       :     3.172001  s :     3.172001
      pz      :     0.918064  p :     2.786048
      px      :     0.941303
      py      :     0.926682
      dz2     :     0.004926  d :     0.032702
      dxz     :     0.004001
      dyz     :     0.008953
      dx2y2   :     0.006817
      dxy     :     0.008005

  5 C s       :     3.173206  s :     3.173206
      pz      :     0.974104  p :     2.787700
      px      :     0.973974
      py      :     0.839622
      dz2     :     0.007505  d :     0.032813
      dxz     :     0.005308
      dyz     :     0.006388
      dx2y2   :     0.007991
      dxy     :     0.005622

  6 C s       :     3.233862  s :     3.233862
      pz      :     0.890286  p :     2.740331
      px      :     0.914924
      py      :     0.935121
      dz2     :     0.004904  d :     0.032896
      dxz     :     0.004203
      dyz     :     0.008778
      dx2y2   :     0.007170
      dxy     :     0.007841

  7 C s       :     3.065264  s :     3.065264
      pz      :     1.017286  p :     2.978064
      px      :     0.977749
      py      :     0.983029
      dz2     :     0.004452  d :     0.034315
      dxz     :     0.005821
      dyz     :     0.004132
      dx2y2   :     0.009936
      dxy     :     0.009974

  8 C s       :     3.229096  s :     3.229096
      pz      :     0.942014  p :     2.709552
      px      :     0.859463
      py      :     0.908075
      dz2     :     0.003380  d :     0.032671
      dxz     :     0.003491
      dyz     :     0.006370
      dx2y2   :     0.010230
      dxy     :     0.009199

  9 C s       :     3.178900  s :     3.178900
      pz      :     0.960948  p :     2.782974
      px      :     0.918475
      py      :     0.903550
      dz2     :     0.002696  d :     0.032633
      dxz     :     0.005009
      dyz     :     0.005118
      dx2y2   :     0.009123
      dxy     :     0.010686

 10 C s       :     3.172442  s :     3.172442
      pz      :     0.973177  p :     2.785615
      px      :     0.948643
      py      :     0.863795
      dz2     :     0.004156  d :     0.032768
      dxz     :     0.005752
      dyz     :     0.003638
      dx2y2   :     0.009562
      dxy     :     0.009661

 11 C s       :     3.171655  s :     3.171655
      pz      :     0.970574  p :     2.786456
      px      :     0.855243
      py      :     0.960639
      dz2     :     0.003409  d :     0.032663
      dxz     :     0.003521
      dyz     :     0.006415
      dx2y2   :     0.010428
      dxy     :     0.008890

 12 C s       :     3.234398  s :     3.234398
      pz      :     0.945253  p :     2.735096
      px      :     0.929223
      py      :     0.860620
      dz2     :     0.002762  d :     0.032982
      dxz     :     0.005159
      dyz     :     0.005382
      dx2y2   :     0.009030
      dxy     :     0.010648

 13 C s       :     3.074826  s :     3.074826
      pz      :     1.013072  p :     2.979258
      px      :     0.979061
      py      :     0.987125
      dz2     :     0.006567  d :     0.034397
      dxz     :     0.006059
      dyz     :     0.005479
      dx2y2   :     0.008136
      dxy     :     0.008157

 14 C s       :     3.222100  s :     3.222100
      pz      :     0.918162  p :     2.732186
      px      :     0.889296
      py      :     0.924728
      dz2     :     0.010247  d :     0.032697
      dxz     :     0.008981
      dyz     :     0.007102
      dx2y2   :     0.002594
      dxy     :     0.003772

 15 C s       :     3.217005  s :     3.217005
      pz      :     0.942491  p :     2.719164
      px      :     0.878945
      py      :     0.897728
      dz2     :     0.004982  d :     0.032724
      dxz     :     0.004923
      dyz     :     0.007064
      dx2y2   :     0.008023
      dxy     :     0.007732

 16 C s       :     3.178159  s :     3.178159
      pz      :     0.922525  p :     2.784605
      px      :     0.939241
      py      :     0.922840
      dz2     :     0.004050  d :     0.032681
      dxz     :     0.005290
      dyz     :     0.006818
      dx2y2   :     0.007980
      dxy     :     0.008543

 17 C s       :     3.172441  s :     3.172441
      pz      :     0.968640  p :     2.785097
      px      :     0.947667
      py      :     0.868791
      dz2     :     0.006396  d :     0.032739
      dxz     :     0.006072
      dyz     :     0.005172
      dx2y2   :     0.007504
      dxy     :     0.007596

 18 C s       :     3.172321  s :     3.172321
      pz      :     0.945623  p :     2.785581
      px      :     0.882007
      py      :     0.957951
      dz2     :     0.005007  d :     0.032674
      dxz     :     0.004999
      dyz     :     0.007217
      dx2y2   :     0.007946
      dxy     :     0.007506

 19 C s       :     3.238311  s :     3.238311
      pz      :     0.915308  p :     2.732805
      px      :     0.939988
      py      :     0.877509
      dz2     :     0.004075  d :     0.032916
      dxz     :     0.005384
      dyz     :     0.006914
      dx2y2   :     0.008029
      dxy     :     0.008516

 20 C s       :     3.072844  s :     3.072844
      pz      :     1.001242  p :     2.985698
      px      :     0.985954
      py      :     0.998503
      dz2     :     0.004563  d :     0.034416
      dxz     :     0.004807
      dyz     :     0.007355
      dx2y2   :     0.008726
      dxy     :     0.008966

 21 C s       :     3.231875  s :     3.231875
      pz      :     0.911472  p :     2.736254
      px      :     0.887113
      py      :     0.937668
      dz2     :     0.004029  d :     0.032841
      dxz     :     0.004156
      dyz     :     0.007639
      dx2y2   :     0.008458
      dxy     :     0.008559

 22 C s       :     3.173674  s :     3.173674
      pz      :     0.978302  p :     2.785369
      px      :     0.961870
      py      :     0.845198
      dz2     :     0.006037  d :     0.032777
      dxz     :     0.005366
      dyz     :     0.005084
      dx2y2   :     0.009011
      dxy     :     0.007278

 23 C s       :     3.172283  s :     3.172283
      pz      :     0.934219  p :     2.785375
      px      :     0.930327
      py      :     0.920829
      dz2     :     0.003863  d :     0.032717
      dxz     :     0.004320
      dyz     :     0.007494
      dx2y2   :     0.007858
      dxy     :     0.009183

 24 C s       :     3.172070  s :     3.172070
      pz      :     0.947798  p :     2.785414
      px      :     0.898551
      py      :     0.939065
      dz2     :     0.004037  d :     0.032712
      dxz     :     0.004147
      dyz     :     0.007622
      dx2y2   :     0.008362
      dxy     :     0.008544

 25 C s       :     3.174926  s :     3.174926
      pz      :     0.884562  p :     2.780440
      px      :     0.924977
      py      :     0.970901
      dz2     :     0.007870  d :     0.032710
      dxz     :     0.010048
      dyz     :     0.005722
      dx2y2   :     0.004706
      dxy     :     0.004364

 26 C s       :     3.235124  s :     3.235124
      pz      :     0.955339  p :     2.734844
      px      :     0.956581
      py      :     0.822925
      dz2     :     0.006178  d :     0.032810
      dxz     :     0.005432
      dyz     :     0.005100
      dx2y2   :     0.008815
      dxy     :     0.007285

 27 C s       :     3.079756  s :     3.079756
      pz      :     1.000043  p :     2.989142
      px      :     0.977691
      py      :     1.011408
      dz2     :     0.008415  d :     0.034512
      dxz     :     0.008915
      dyz     :     0.005944
      dx2y2   :     0.006177
      dxy     :     0.005060

 28 C s       :     3.224582  s :     3.224582
      pz      :     0.908745  p :     2.732014
      px      :     0.900872
      py      :     0.922398
      dz2     :     0.010094  d :     0.032645
      dxz     :     0.008635
      dyz     :     0.007602
      dx2y2   :     0.002358
      dxy     :     0.003955

 29 C s       :     3.175061  s :     3.175061
      pz      :     0.891373  p :     2.783774
      px      :     0.936369
      py      :     0.956032
      dz2     :     0.007825  d :     0.032736
      dxz     :     0.009128
      dyz     :     0.007095
      dx2y2   :     0.004449
      dxy     :     0.004238

 30 C s       :     3.172745  s :     3.172745
      pz      :     0.858674  p :     2.784755
      px      :     0.956640
      py      :     0.969440
      dz2     :     0.008669  d :     0.032698
      dxz     :     0.007821
      dyz     :     0.005676
      dx2y2   :     0.005625
      dxy     :     0.004907

 31 C s       :     3.173345  s :     3.173345
      pz      :     0.959847  p :     2.784901
      px      :     0.892131
      py      :     0.932923
      dz2     :     0.010170  d :     0.032743
      dxz     :     0.008408
      dyz     :     0.007607
      dx2y2   :     0.002419
      dxy     :     0.004139

 32 C s       :     3.237556  s :     3.237556
      pz      :     0.826578  p :     2.737727
      px      :     0.948628
      py      :     0.962521
      dz2     :     0.007772  d :     0.032796
      dxz     :     0.009134
      dyz     :     0.007150
      dx2y2   :     0.004454
      dxy     :     0.004287

 33 C s       :     3.172580  s :     3.172580
      pz      :     0.864423  p :     2.785126
      px      :     0.953510
      py      :     0.967193
      dz2     :     0.008393  d :     0.032691
      dxz     :     0.008831
      dyz     :     0.005190
      dx2y2   :     0.005328
      dxy     :     0.004950

 34 C s       :     3.174383  s :     3.174383
      pz      :     0.960608  p :     2.784433
      px      :     0.875525
      py      :     0.948300
      dz2     :     0.010331  d :     0.032744
      dxz     :     0.008744
      dyz     :     0.007092
      dx2y2   :     0.002661
      dxy     :     0.003915

 35 C s       :     3.230758  s :     3.230758
      pz      :     0.830634  p :     2.750002
      px      :     0.946876
      py      :     0.972493
      dz2     :     0.007787  d :     0.032844
      dxz     :     0.010032
      dyz     :     0.005878
      dx2y2   :     0.004745
      dxy     :     0.004403

 36 C s       :     3.062623  s :     3.062623
      pz      :     1.002209  p :     2.990298
      px      :     0.987828
      py      :     1.000261
      dz2     :     0.005552  d :     0.034370
      dxz     :     0.004587
      dyz     :     0.008523
      dx2y2   :     0.007732
      dxy     :     0.007977

 37 C s       :     3.233921  s :     3.233921
      pz      :     0.947832  p :     2.735374
      px      :     0.962810
      py      :     0.824732
      dz2     :     0.007616  d :     0.032800
      dxz     :     0.005363
      dyz     :     0.006433
      dx2y2   :     0.007800
      dxy     :     0.005587

 38 C s       :     3.171996  s :     3.171996
      pz      :     0.925932  p :     2.787263
      px      :     0.929832
      py      :     0.931498
      dz2     :     0.004924  d :     0.032739
      dxz     :     0.004149
      dyz     :     0.008786
      dx2y2   :     0.006994
[...]
Atom  89H    basis set group =>   4
Atom  90H    basis set group =>   4
Atom  91H    basis set group =>   4
Atom  92H    basis set group =>   4
Atom  93H    basis set group =>   4
Atom  94H    basis set group =>   4
Atom  95H    basis set group =>   4
Atom  96H    basis set group =>   4
Atom  97H    basis set group =>   4
Atom  98H    basis set group =>   4
Atom  99H    basis set group =>   4
Atom 100H    basis set group =>   4
Atom 101H    basis set group =>   4
Atom 102H    basis set group =>   4
Atom 103H    basis set group =>   4
Atom 104H    basis set group =>   4
Atom 105H    basis set group =>   4
Atom 106H    basis set group =>   4
---------------------------------
AUXILIARY/J BASIS SET INFORMATION
---------------------------------
There are 4 groups of distinct atoms

 Group   1 Type Ru  : 11s5p5d3f3g contracted to 8s5p5d2f3g pattern {41111111/11111/11111/21/111}
 Group   2 Type P   : 14s5p5d2f1g contracted to 8s4p3d1f1g pattern {71111111/2111/311/2/1}
 Group   3 Type C   : 12s5p4d2f1g contracted to 6s4p3d1f1g pattern {711111/2111/211/2/1}
 Group   4 Type H   : 5s2p1d contracted to 3s1p1d pattern {311/2/1}

Atom   0Ru   basis set group =>   1
Atom   1P    basis set group =>   2
Atom   2P    basis set group =>   2
Atom   3P    basis set group =>   2
Atom   4C    basis set group =>   3
Atom   5C    basis set group =>   3
Atom   6C    basis set group =>   3
Atom   7C    basis set group =>   3
Atom   8C    basis set group =>   3
Atom   9C    basis set group =>   3
Atom  10C    basis set group =>   3
Atom  11C    basis set group =>   3
Atom  12C    basis set group =>   3
Atom  13C    basis set group =>   3
Atom  14C    basis set group =>   3
Atom  15C    basis set group =>   3
Atom  16C    basis set group =>   3
Atom  17C    basis set group =>   3
Atom  18C    basis set group =>   3
Atom  19C    basis set group =>   3
Atom  20C    basis set group =>   3
Atom  21C    basis set group =>   3
Atom  22C    basis set group =>   3
Atom  23C    basis set group =>   3
Atom  24C    basis set group =>   3
Atom  25C    basis set group =>   3
Atom  26C    basis set group =>   3
Atom  27C    basis set group =>   3
Atom  28C    basis set group =>   3
Atom  29C    basis set group =>   3
Atom  30C    basis set group =>   3
Atom  31C    basis set group =>   3
Atom  32C    basis set group =>   3
Atom  33C    basis set group =>   3
Atom  34C    basis set group =>   3
Atom  35C    basis set group =>   3
Atom  36C    basis set group =>   3
Atom  37C    basis set group =>   3
Atom  38C    basis set group =>   3
Atom  39C    basis set group =>   3
Atom  40C    basis set group =>   3
Atom  41C    basis set group =>   3
Atom  42C    basis set group =>   3
Atom  43C    basis set group =>   3
Atom  44C    basis set group =>   3
Atom  45C    basis set group =>   3
Atom  46C    basis set group =>   3
Atom  47C    basis set group =>   3
Atom  48C    basis set group =>   3
Atom  49C    basis set group =>   3
Atom  50C    basis set group =>   3
Atom  51C    basis set group =>   3
Atom  52C    basis set group =>   3
Atom  53C    basis set group =>   3
Atom  54C    basis set group =>   3
Atom  55C    basis set group =>   3
Atom  56C    basis set group =>   3
Atom  57C    basis set group =>   3
Atom  58H    basis set group =>   4
Atom  59H    basis set group =>   4
Atom  60H    basis set group =>   4
Atom  61H    basis set group =>   4
Atom  62H    basis set group =>   4
Atom  63H    basis set group =>   4
Atom  64H    basis set group =>   4
Atom  65H    basis set group =>   4
Atom  66H    basis set group =>   4
Atom  67H    basis set group =>   4
Atom  68H    basis set group =>   4
Atom  69H    basis set group =>   4
Atom  70H    basis set group =>   4
Atom  71H    basis set group =>   4
Atom  72H    basis set group =>   4
Atom  73H    basis set group =>   4
Atom  74H    basis set group =>   4
Atom  75H    basis set group =>   4
Atom  76H    basis set group =>   4
Atom  77H    basis set group =>   4
Atom  78H    basis set group =>   4
Atom  79H    basis set group =>   4
Atom  80H    basis set group =>   4
Atom  81H    basis set group =>   4
Atom  82H    basis set group =>   4
Atom  83H    basis set group =>   4
Atom  84H    basis set group =>   4
Atom  85H    basis set group =>   4
Atom  86H    basis set group =>   4
Atom  87H    basis set group =>   4
Atom  88H    basis set group =>   4
Atom  89H    basis set group =>   4
Atom  90H    basis set group =>   4
Atom  91H    basis set group =>   4
Atom  92H    basis set group =>   4
Atom  93H    basis set group =>   4
Atom  94H    basis set group =>   4
Atom  95H    basis set group =>   4
Atom  96H    basis set group =>   4
Atom  97H    basis set group =>   4
Atom  98H    basis set group =>   4
Atom  99H    basis set group =>   4
Atom 100H    basis set group =>   4
Atom 101H    basis set group =>   4
Atom 102H    basis set group =>   4
Atom 103H    basis set group =>   4
Atom 104H    basis set group =>   4
Atom 105H    basis set group =>   4
Atom 106H    basis set group =>   4
-------------------------
ECP PARAMETER INFORMATION
-------------------------

 Group 1, Type Ru ECP Def2-ECP (replacing 28 core electrons, lmax=3)

Atom   0Ru   ECP group =>   1

------------------------------------------------------------------------------
                             ORCA STARTUP CALCULATIONS
                           -- RI-GTO INTEGRALS CHOSEN --
------------------------------------------------------------------------------
------------------------------------------------------------------------------
                   ___                                                        
                  /   \      - P O W E R E D   B Y -                         
                 /     \                                                     
                 |  |  |   _    _      __       _____    __    __             
                 |  |  |  | |  | |    /  \     |  _  \  |  |  /  |          
                  \  \/   | |  | |   /    \    | | | |  |  | /  /          
                 / \  \   | |__| |  /  /\  \   | |_| |  |  |/  /          
                |  |  |   |  __  | /  /__\  \  |    /   |      \           
                |  |  |   | |  | | |   __   |  |    \   |  |\   \          
                \     /   | |  | | |  |  |  |  | |\  \  |  | \   \       
                 \___/    |_|  |_| |__|  |__|  |_| \__\ |__|  \__/        
                                                                              
                      - O R C A' S   B I G   F R I E N D -                    
                                      &                                       
                       - I N T E G R A L  F E E D E R -                       
                                                                              
 v1 FN, 2020, v2 2021, v3 2022-2024                                           
------------------------------------------------------------------------------


----------------------
SHARK INTEGRAL PACKAGE
----------------------

Number of atoms                             ...    107
Number of basis functions                   ...   1086
Number of shells                            ...    506
Maximum angular momentum                    ...      3
Integral batch strategy                     ... SHARK/LIBINT Hybrid
RI-J (if used) integral strategy            ... SPLIT-RIJ (Revised 2003 algorithm where possible)
Printlevel                                  ...      1
Contraction scheme used                     ... SEGMENTED contraction
Prescreening option                         ... SCHWARTZ
   Thresh                                   ... 1.000e-12
   Tcut                                     ... 1.000e-14
   Tpresel                                  ... 1.000e-14 
Coulomb Range Separation                    ... NOT USED
Exchange Range Separation                   ... NOT USED
Multipole approximations                    ... NOT USED
Finite Nucleus Model                        ... NOT USED
CABS basis                                  ... NOT available
Auxiliary Coulomb fitting basis             ... AVAILABLE
   # of basis functions in Aux-J            ...   3427
   # of shells in Aux-J                     ...   1129
   Maximum angular momentum in Aux-J        ...      4
Auxiliary J/K fitting basis                 ... NOT available
Auxiliary Correlation fitting basis         ... NOT available
Auxiliary 'external' fitting basis          ... NOT available

Checking pre-screening integrals            ... done (  0.0 sec) Dimension = 506
   => SHARK Basis and OBASIS are compatible. Storing Pre-screening
Shell pair information
Shell pair cut-off parameter TPreSel        ...   1.0e-14
Total number of shell pairs                 ...    128271
Shell pairs after pre-screening             ...     81245
Total number of primitive shell pairs       ...    467994
Primitive shell pairs kept                  ...    171962
          la=0 lb=0:  25556 shell pairs
          la=1 lb=0:  30685 shell pairs
          la=1 lb=1:   9377 shell pairs
          la=2 lb=0:   9121 shell pairs
          la=2 lb=1:   5417 shell pairs
          la=2 lb=2:    726 shell pairs
          la=3 lb=0:    207 shell pairs
          la=3 lb=1:    120 shell pairs
          la=3 lb=2:     35 shell pairs
          la=3 lb=3:      1 shell pairs

Checking whether 4 symmetric matrices of dimension 1086 fit in memory
:Max Core in MB      =   4096.00
 MB in use           =     99.55
 MB left             =   3996.45
 MB needed           =     18.01
 Data fit in memory  = YES
Calculating RI/J V-Matrix + Cholesky decomp.... done (  0.4 sec)
Calculating Nuclear repulsion               ... done (  0.0 sec) ENN=   9817.229163980353 Eh

Diagonalization of the overlap matrix:
Smallest eigenvalue                        ... 2.234e-04
Time for diagonalization                   ...    0.132 sec
Threshold for overlap eigenvalues          ... 1.000e-07
Number of eigenvalues below threshold      ... 0
Time for construction of square roots      ...    0.070 sec
Total time needed                          ...    0.204 sec

-------------------
DFT GRID GENERATION
-------------------

General Integration Accuracy     IntAcc      ... 4.959
Radial Grid Type                 RadialGrid  ... OptM3 with GC (2021)
Angular Grid (max. ang.)         AngularGrid ... 6 (Lebedev-590)
Angular grid pruning method      GridPruning ... 4 (adaptive)
Weight generation scheme         WeightScheme... mBecke (2022)
Basis function cutoff            BFCut       ... 1.0000e-12
Integration weight cutoff        WCut        ... 1.0000e-14
Partially contracted basis set               ... off
Rotationally invariant grid construction     ... off
Angular grids for H and He will be reduced by one unit

Total number of grid points                  ...  1220251
Total number of batches                      ...    19117
Average number of points per batch           ...       63
Average number of grid points per atom       ...    11404
Grids setup in  26.5 sec
Initializing property integral containers    ... done (  0.0 sec)

SHARK setup successfully completed in  29.1 seconds

Maximum memory used throughout the entire STARTUP-calculation: 492.7 MB
-------------------------------------------------------------------------------
                                 ORCA GUESS
                   Start orbitals & Density for SCF / CASSCF
-------------------------------------------------------------------------------

------------
SCF SETTINGS
------------
Hamiltonian:
 Density Functional     Method          .... DFT(GTOs)
 Exchange Functional    Exchange        .... B88
   X-Alpha parameter    XAlpha          ....  0.666667
   Becke's b parameter  XBeta           ....  0.004200
 Correlation Functional Correlation     .... P86
 LDA part of GGA corr.  LDAOpt          .... PW91-LDA
 Gradients option       PostSCFGGA      .... off
   NL short-range parameter             ....  4.400000
 RI-approximation to the Coulomb term is turned on
   Number of AuxJ basis functions       .... 3427


General Settings:
 Integral files         IntName         .... bbcp_def2svp_Compound_3
 Hartree-Fock type      HFTyp           .... RHF
 Total Charge           Charge          ....    0
 Multiplicity           Mult            ....    1
 Number of Electrons    NEL             ....  434
 Basis Dimension        Dim             .... 1086
 Nuclear Repulsion      ENuc            ....   9817.2291639804 Eh

Convergence Acceleration:
 AO-DIIS                CNVDIIS         .... on
   Start iteration      DIISMaxIt       ....    12
   Startup error        DIISStart       ....  0.200000
   # of expansion vecs  DIISMaxEq       ....     5
   Bias factor          DIISBfac        ....   1.050
   Max. coefficient     DIISMaxC        ....  10.000
 MO-DIIS                CNVKDIIS        .... off
 Trust-Rad. Augm. Hess. CNVTRAH         .... auto
   Auto Start mean grad. ratio tolernc. ....  1.125000
   Auto Start start iteration           ....    50
   Auto Start num. interpolation iter.  ....    10
   Max. Number of Micro iterations      ....    24
   Max. Number of Macro iterations      .... Maxiter - #DIIS iter
   Number of Davidson start vectors     ....     2
   Converg. threshold    (grad. norm)   ....   2.000e-06
   Grad. Scal. Fac. for Micro threshold ....   0.100
   Minimum threshold for Micro iter.    ....   1.000e-02
   NR start threshold (gradient norm)   ....   1.000e-04
   Initial trust radius                 ....   0.400
   Minimum AH scaling param. (alpha)    ....   1.000
   Maximum AH scaling param. (alpha)    .... 1000.000
   Quad. conv. algorithm                .... NR
   White noise on init. David. guess    .... on
   Maximum white noise                  ....   0.010
   Pseudo random numbers                .... off
   Inactive MOs                         .... canonical
   Orbital update algorithm             .... Taylor
   Preconditioner                       .... Diag
   Full preconditioner red. dimension   ....   250
 SOSCF                 CNVSOSCF           .... on
   Start iteration     SOSCFMaxIt         ....   150
   Startup grad/error  SOSCFStart         ....  0.003300
   Hessian update      SOSCFHessUp        .... L-BFGS
   Autom. constraints  SOSCFAutoConstrain .... off
 Level Shifting         CNVShift        .... on
   Level shift para.    LevelShift      ....    0.2500
   Turn off err/grad.   ShiftErr        ....    0.0010
 Zerner damping         CNVZerner       .... off
 Static damping         CNVDamp         .... on
   Fraction old density DampFac         ....    0.7000
   Max. Damping (<1)    DampMax         ....    0.9800
   Min. Damping (>=0)   DampMin         ....    0.0000
   Turn off err/grad.   DampErr         ....    0.1000

SCF Procedure:
 Maximum # iterations   MaxIter         ....   125
 SCF integral mode      SCFMode         .... Direct
   Integral package                     .... SHARK and LIBINT hybrid scheme
 Reset frequency        DirectResetFreq ....    20
 Integral Threshold     Thresh          ....  1.000e-12 Eh
 Primitive CutOff       TCut            ....  1.000e-14 Eh

Convergence Tolerance:
 Convergence Check Mode ConvCheckMode   .... Total+1el-Energy
 Convergence forced     ConvForced      .... 0
 Energy Change          TolE            ....  1.000e-09 Eh
 1-El. energy change                    ....  1.000e-06 Eh
 Orbital Gradient       TolG            ....  2.000e-06
 Orbital Rotation angle TolX            ....  2.000e-06
 DIIS Error             TolErr          ....  1.000e-08

------------------------------
INITIAL GUESS: MODEL POTENTIAL
------------------------------
Loading Hartree-Fock densities                     ... done
Atomic calculation to generate a density for atom 0 (Ru with ECP)
  Multiplicity assumed   :    5
  Atomic configuration   : 1s2 2s2 2p6 3s2 3p6 4s2 3d10 4p6 5s2 4d6 
  Number of open shells  : 1
  Command: /cluster/projects/nn14654k/ylvaos/orca_6_1_1_linux_x86-64_shared_openmpi418/orca bbcp_def2svp_Compound_3_atom44.inp "" > bbcp_def2svp_Compound_3_atom44.out
Returned from the atomic calculation with res=0
Calculating cut-offs                               ... done
Initializing the effective Hamiltonian             ... done
Setting up the integral package (SHARK)            ... done
Starting the Coulomb interaction                   ... done (   8.5 sec)
Making the grid                                    ... done (   2.8 sec)
Mapping shells                                     ... done
Starting the XC term evaluation                    ... done (   2.4 sec)
  promolecular density results
     # of electrons  =    461.983324105
     EX              =   -489.510645022
     EC              =    -18.207216784
     EX+EC           =   -507.717861806
Transforming the Hamiltonian                       ... done (   0.1 sec)
Diagonalizing the Hamiltonian                      ... done (   0.1 sec)
Back transforming the eigenvectors                 ... done (   0.0 sec)
Now organizing SCF variables                       ... done
                      ------------------
                      INITIAL GUESS DONE (  15.0 sec)
                      ------------------
             **** ENERGY FILE WAS UPDATED (bbcp_def2svp_Compound_3.en.tmp) ****
Finished Guess after  15.2 sec
Maximum memory used throughout the entire GUESS-calculation: 177.0 MB

-------------------------------------------------------------------------------------------
                                      ORCA LEAN-SCF
                              memory conserving SCF solver
-------------------------------------------------------------------------------------------

----------------------------------------D-I-I-S--------------------------------------------
Iteration    Energy (Eh)           Delta-E    RMSDP     MaxDP     DIISErr   Damp  Time(sec)
-------------------------------------------------------------------------------------------
               ***  Starting incremental Fock matrix formation  ***
    1    -3203.7446360828889738     0.00e+00  1.18e-03  7.17e-02  4.68e-01  0.700  38.6
    2    -3204.1772918771112018    -4.33e-01  8.28e-04  3.80e-02  3.19e-01  0.700  33.1
    3    -3204.3437583669874584    -1.66e-01  4.22e-04  1.89e-02  2.20e-01  0.700  32.6
                               ***Turning on AO-DIIS***
    4    -3204.4356233234357205    -9.19e-02  2.21e-04  1.71e-02  1.55e-01  0.700  31.3
    5    -3204.5025234113527404    -6.69e-02  1.29e-04  1.02e-02  1.08e-01  0.700  29.8
    6    -3204.5493532746822893    -4.68e-02  8.09e-05  9.18e-03  7.60e-02  0.700  28.7
    7    -3204.5819762460687343    -3.26e-02  1.72e-04  1.93e-02  5.29e-02  0.000  27.9
                              *** Initializing SOSCF ***
---------------------------------------S-O-S-C-F--------------------------------------
Iteration    Energy (Eh)           Delta-E    RMSDP     MaxDP     MaxGrad    Time(sec)
--------------------------------------------------------------------------------------
    8    -3204.6577313629222772    -7.58e-02  2.07e-05  1.42e-03  6.29e-04    29.2
               *** Restarting incremental Fock matrix formation ***
    9    -3204.6577435781709937    -1.22e-05  2.55e-05  2.52e-03  1.41e-04    40.2
   10    -3204.6576918986902456     5.17e-05  1.99e-05  3.19e-03  7.41e-04    26.5
   11    -3204.6577434517221263    -5.16e-05  2.35e-05  3.02e-03  2.92e-04    25.7
   12    -3204.6577045394060406     3.89e-05  1.82e-05  2.18e-03  5.42e-04    26.6
   13    -3204.6577481418335083    -4.36e-05  1.34e-05  9.71e-04  1.13e-04    25.6
   14    -3204.6577362301832181     1.19e-05  9.72e-06  7.03e-04  2.61e-04    24.9
   15    -3204.6577501643678261    -1.39e-05  4.21e-06  3.09e-04  2.74e-05    25.1
   16    -3204.6577488617440395     1.30e-06  3.14e-06  2.41e-04  7.50e-05    24.1
   17    -3204.6577503683110990    -1.51e-06  1.08e-06  7.10e-05  7.06e-06    24.1
   18    -3204.6577503110620455     5.72e-08  7.11e-07  5.02e-05  1.44e-05    22.5
   19    -3204.6577503851276560    -7.41e-08  3.68e-07  2.26e-05  3.16e-06    21.9
