
                                 *****************
                                 * O   R   C   A *
                                 *****************

                                            #,                                       
                                            ###                                      
                                            ####                                     
                                            #####                                    
                                            ######                                   
                                           ########,                                 
                                     ,,################,,,,,                         
                               ,,#################################,,                 
                          ,,##########################################,,             
                       ,#########################################, ''#####,          
                    ,#############################################,,   '####,        
                  ,##################################################,,,,####,       
                ,###########''''           ''''###############################       
              ,#####''   ,,,,##########,,,,          '''####'''          '####       
            ,##' ,,,,###########################,,,                        '##       
           ' ,,###''''                  '''############,,,                           
         ,,##''                                '''############,,,,        ,,,,,,###''
      ,#''                                            '''#######################'''  
     '                                                          ''''####''''         
             ,#######,   #######,   ,#######,      ##                                
            ,#'     '#,  ##    ##  ,#'     '#,    #''#        ,####,    ,#,          
            ##       ##  ##   ,#'  ##            #'  '#       #'       ,# #          
            ##       ##  #######   ##           ,######,      #####,      #          
            '#,     ,#'  ##    ##  '#,     ,#' ,#      #,     #,   #      #          
             '#######'   ##     ##  '#######'  #'      '#     '####' #    #          



                #########################################################
                #                        -***-                          #
                #          Department of theory and spectroscopy        #
                #                                                       #
                #                      Frank Neese                      #
                #                                                       #
                #     Directorship, Architecture, Infrastructure        #
                #                    SHARK, DRIVERS                     #
                #        Core code/Algorithms in most modules           #
                #                                                       #
                #        Max Planck Institute fuer Kohlenforschung      #
                #                Kaiser Wilhelm Platz 1                 #
                #                 D-45470 Muelheim/Ruhr                 #
                #                      Germany                          #
                #                                                       #
                #                  All rights reserved                  #
                #                        -***-                          #
                #########################################################


                         Program Version 6.1.1  -  RELEASE   -
                                (GIT: $487d211c$)
                          ($2025-11-21 10:33:24 +0100$)


 With contributions from (in alphabetic order):
[Max-Planck-Institut fuer Kohlenforschung]                               
  Daniel Aravena         : Magnetic Suceptibility                        
  Michael Atanasov       : Ab Initio Ligand Field Theory (pilot matlab implementation)
  Alexander A. Auer      : GIAO ZORA, VPT2 properties, NMR spectrum      
  Ute Becker             : All parallelization in ORCA, NUMFREQ, NUMCALC 
  Giovanni Bistoni       : ED, misc. LED, open-shell LED, HFLD           
  Dmytro Bykov           : pre 5.0 version of the SCF Hessian            
  Marcos Casanova-Páez   : Triplet and SCS-CIS(D). UHF-(DLPNO)-IP/EA/STEOM-CCSD. UHF-CVS-IP/STEOM-CCSD   
  Vijay G. Chilkuri      : MRCI spin determinant printing, contributions to CSF-ICE 
  Pauline Colinet        : FMM embedding                                 
  Dipayan Datta          : RHF DLPNO-CCSD density                        
  Achintya Kumar Dutta   : EOM-CC, STEOM-CC                              
  Nicolas Foglia         : Exact transition moments, OPA infrastructure, MCD improvements    
  Dmitry Ganyushin       : Spin-Orbit,Spin-Spin,Magnetic field MRCI      
  Miquel Garcia-Rates    : C-PCM and meta-GGA Hessian, CCSD/C-PCM, Gaussian charge scheme 
  Tiago L. C. Gouveia    : GS-ROHF, GS-ROCIS                             
  Yang Guo               : DLPNO-NEVPT2, F12-NEVPT2, CIM, IAO-localization        
  Andreas Hansen         : Spin unrestricted coupled pair/coupled cluster methods 
  Ingolf Harden          : AUTO-CI MPn and infrastructure                
  Benjamin Helmich-Paris : MC-RPA, TRAH-(SCF,CASSCF), AVAS, COSX integrals, SCF dyn. polar., MC-PDFT, srDFT 
  Lee Huntington         : MR-EOM, pCC                                   
  Robert Izsak           : Overlap fitted RIJCOSX, COSX-SCS-MP3, EOM     
  Riya Kayal             : Wick's Theorem for AUTO-CI, AUTO-CI UHF-CCSDT 
  Emily Kempfer          : AUTO-CI RHF CISDT and CCSDT, approximate NEVPT4
  Christian Kollmar      : KDIIS, OOCD, Brueckner-CCSD(T), CCSD density, CASPT2, CASPT2-K, improved NEVPT2 
  Axel Koslowski         : Symmetry handling                             
  Simone Kossmann        : meta-GGA functionals, TD-DFT gradient, OOMP2, (MP2 Hessian; deprecated post 5.0) 
  Lucas Lang             : DCDCAS, Hyperfine gauge corrections, ICE-SOC+SSC
  Marvin Lechner         : AUTO-CI (C++ implementation), FIC-MRCC        
  Spencer Leger          : CASSCF response                               
  Dagmar Lenk            : GEPOL surface, SMD, ORCA-2-JSON               
  Dimitrios Liakos       : Extrapolation schemes; Compound Job, Property file
  Dimitrios Manganas     : Further ROCIS development; embedding schemes. LFT, Crystal Embedding 
  Dimitrios Pantazis     : SARC Basis sets                               
  Anastasios Papadopoulos: AUTO-CI, single reference methods and gradients 
  Taras Petrenko         : pre 6.0 DFT Hessian and TD-DFT gradient,  ECA, NRVS 
  Petra Pikulova         : Analytic Raman intensities                    
  Peter Pinski           : DLPNO-MP2, DLPNO-MP2 Gradient                 
  Shashank Vittal Rao    : ES-AILFT, MagRelax                            
  Christoph Reimann      : Effective Core Potentials                     
  Marius Retegan         : Local ZFS, SOC                                
  Christoph Riplinger    : Optimizer, TS searches, QM/MM, DLPNO-CCSD(T), (RO)-DLPNO pert. Triples 
  Michael Roemelt        : Original ROCIS implementation, recursive CI coupling coefficients
  Masaaki Saitow         : Open-shell DLPNO-CCSD energy and density      
  Barbara Sandhoefer     : DKH picture change effects                    
  Yorick L. A. Schmerwitz: GMF and freeze-and-release deltaSCF, NEB S-IDPP initial path                    
  Kantharuban Sivalingam : CASSCF convergence/infrastructure, NEVPT2, NEVPT3, NEVPT4(SD), FIC-MRCI and CEPA variants
  Bernardo de Souza      : ESD, SOC TD-DFT                               
  Georgi L. Stoychev     : AutoAux, RI-MP2 NMR, DLPNO-MP2 response, X2C  
  Van Anh Tran           : RI-MP2 g-tensors                              
  Willem Van den Heuvel  : Paramagnetic NMR                              
  Zikuan Wang            : NOTCH, Electric field optimization            
  Frank Wennmohs         : Technical directorship and infrastructure     
  Hang Xu                : AUTO-CI-Response properties                   
                                                                         
[FACCTs GmbH]                                                            
  Markus Bursch, Nicolas Foglia, Miquel Garcia-Rates, Ingolf Harden, Hagen Neugebauer, Anastasios Papadopoulos, 
  Christoph Riplinger, Bernardo de Souza, Georgi L. Stoychev                                                    
                                                                 
  APM, various basis sets, CI-OPT, improved COSX, DLPNO-Multilevel,           
  DOCKER, DRACO, updates on ESD, Fragmentator, GOAT, IRC, LR-CPCM, L-BFGS, MBIS, meta-GGA TD-DFT gradient, ML-optimized integration grids, 
  MM, NACMEs, nearIR, NEB, NEB-TS, NL-DFT gradient (VV10), 2- and 3-layer-ONIOM, interface openCOSMO-RS, QMMM,   
  Crystal-QMMM, RESP, rigid body optimization, SF, symmetry and pop. for TD-DFT, various functionals, SOLVATOR                                   
                                                                         
[Other institutions]                                                     
  V. Asgeirsson          : NEB                                           
  Christoph Bannwarth    : sTDA-DFT, sTD-DFT, PBEh-3c, B97-3c, D3        
  Giovanni Bistoni       : ETS/NOCV, ADLD/ADEX, COVALED                  
  Martin Brehm           : Molecular dynamics                            
  Ronald Cardenas        : ETS/NOCV                                      
  Martina Colucci        : COVALED                                       
  Sebastian Ehlert       : rSCAN, r2SCAN, r2SCAN-3c, D4, dhf basis sets  
  Marvin Friede          : D4 for Fr, Ra, Ac-Lr                          
  Lars Goerigk           : TD-DFT with DH, B97 family of functionals     
  Stefan Grimme          : VdW corrections, initial TS optimization, DFT functionals, gCP, sTDA/sTD-DF 
  Waldemar Hujo          : DFT-NL                                        
  H. Jonsson             : NEB                                           
  Holger Kruse           : gCP                                           
  Marcel Mueller         : wB97X-3c, vDZP basis set                      
  Hagen Neugebauer       : wr2SCAN, Native XTB                           
  Gianluca Regni         : ADLD/ADEX                                     
  Tobias Risthaus        : pre 6.0 range-separated hybrid DFT and stability analysis
  Lukas Wittmann         : regularized MP2, r2SCAN double-hybrids, wr2SCAN        
                                                                         
We gratefully acknowledge several colleagues who have allowed us to      
interface, adapt or use parts of their codes:                            
  Ed Valeev, F. Pavosevic, A. Kumar             : LibInt (2-el integral package), F12 methods 
  Garnet Chan, S. Sharma, J. Yang, R. Olivares  : DMRG                   
  Ulf Ekstrom                                   : XCFun DFT Library      
  Mihaly Kallay                                 : mrcc  (arbitrary order and MRCC methods)
  Frank Weinhold                                : gennbo (NPA and NBO analysis)           
  Simon Mueller                                 : openCOSMO-RS                            
  Christopher J. Cramer and Donald G. Truhlar   : smd solvation model                     
  S Lehtola, MJT Oliveira, MAL Marques          : LibXC Library                           
  Liviu Ungur et al                             : ANISO software                          


 Your calculation uses the libint2 library for the computation of 2-el integrals
 For citations please refer to: http://libint.valeyev.net

 Your ORCA version has been built with support for libXC version: 7.0.0
 For citations please refer to: https://libxc.gitlab.io

 This ORCA versions uses:
   CBLAS   interface :  Fast vector & matrix operations
   LAPACKE interface :  Fast linear algebra routines
   SCALAPACK package :  Parallel linear algebra routines
   Shared memory     :  Shared parallel matrices
   BLAS/LAPACK       :  OpenBLAS 0.3.29  USE64BITINT DYNAMIC_ARCH NO_AFFINITY Cooperlake SINGLE_THREADED
        Core in use  :  Cooperlake
   Copyright (c) 2011-2014, The OpenBLAS Project


  ***********************************
  * Starting time: Tue Jul 14 14:11:21 2026
  * Host name:     c1-5
  * Process ID:    1351097
  * Working dir.:  /cluster/projects/nn14654k/ylvaos/TPhP_bsse/orca/opt1_bp86/bbcp
  ***********************************

================================================================================

----- Orbital basis set information -----
Your calculation utilizes the basis: def2-SVP
   F. Weigend and R. Ahlrichs, Phys. Chem. Chem. Phys. 7, 3297 (2005).

The basis set includes element-specific modifications.

----- AuxJ basis set information -----
Your calculation utilizes the auxiliary basis: def2/J
   H-Rn: F. Weigend, Phys. Chem. Chem. Phys. 8, 1057 (2006).
   Fr-Lr: K. Eichkorn, F. Weigend, O. Treutler, R. Ahlrichs; Theor. Chem. Acc. 97, 119 (1997).

The basis set includes element-specific modifications.

================================================================================
                                        WARNINGS
                       Please study these warnings very carefully!
================================================================================

WARNING: Frozen-Core approximation turned on, but there are no core electrons.
  ===> : Turning off frozen-core approximation


WARNING: ROHF and Conv is not properly working
  ===> : Setting Mode to Direct


WARNING: Found SCFConvIgnored == true
  ===> : Will try to continue after any unconverged SCF -
         no matter how far from convergence the wavefunction might be.

         Please be very careful with your results!


WARNING: TRAH-SCF with ROHF wave function is not implemented yet
  ===> : Turning TRAH off


================================================================================
                                       INPUT FILE
================================================================================
NAME = bbcp_def2svp_Compound_4_atom44.inp
|  1> # input to generate an atomic fitting density for Ru
|  2> # this file is used internally by ORCA
|  3> #
|  4> # atomic ground state (Mult=5): 1s2 2s2 2p6 3s2 3p6 4s2 3d10 4p6 5s2 4d6 
|  5> #
|  6> ! ROHF def2-SVP def2/J Conv LeanSCF AODIIS SOSCF NoMulliken NoLoewdin NoMayer NoPrintMOs 
|  7> 
|  8> %output print[p_atomdensfit] 2 end
|  9> 
| 10> %scf
| 11>   guess     HCore
| 12>   maxiter    1000
| 13>   maxdisk  500000
| 14>   diismaxeq     8
| 15>   soscfstart 1e-4
| 16>   lshift  1.000000
| 17>   ignoreconv true
| 18> 
| 19>   hftyp        rohf
| 20>   rohf_case    sahf
| 21>   rohf_numop   2
| 22>   rohf_norb[1] 5
| 23>   rohf_nel[1]  6
| 24> 
| 25> end
| 26> 
| 27> %basis
| 28>   NewECP 44
| 29>     N_core 28
| 30>     lmax f
| 31>     s 4
| 32>       1      11.1052693000    209.8229712000  2
| 33>       2       5.4147454000     30.6547264000  2
| 34>       3      11.3600000000     28.3406163000  2
| 35>       4       5.6800000000      4.9446292000  2
| 36>     p 4
| 37>       1       9.7712707000    146.3361823000  2
| 38>       2       5.0739908000     24.1278772000  2
| 39>       3      11.3600000000     28.3406163000  2
| 40>       4       5.6800000000      4.9446292000  2
| 41>     d 4
| 42>       1       7.6714231000     67.5158967000  2
| 43>       2       4.1365647000      9.8701041000  2
| 44>       3      11.3600000000     28.3406163000  2
| 45>       4       5.6800000000      4.9446292000  2
| 46>     f 2
| 47>       1      11.3600000000    -28.3406163000  2
| 48>       2       5.6800000000     -4.9446292000  2
| 49>   end
| 50>   NewGTO 44
| 51>     s 3 
| 52>      1       7.9365700000     -1.1750431009
| 53>      2       5.9842450000      1.6167268412
| 54>      3       4.8822200000      0.5097188245
| 55>     s 1 
| 56>      1       1.1031002163      1.0000000000
| 57>     s 1 
| 58>      1       0.4981887526      1.0000000000
| 59>     s 1 
| 60>      1       0.1067871139      1.0000000000
| 61>     s 1 
| 62>      1       0.0391917759      1.0000000000
| 63>     p 4 
| 64>      1       3.7546090000     -0.7156369065
| 65>      2       2.9165710000      0.7578657870
| 66>      3       1.0322209568      0.6537850932
| 67>      4       0.4524955377      0.2732917945
| 68>     p 1 
| 69>      1       0.1698704220      1.0000000000
| 70>     p 1 
| 71>      1       0.0430000000      1.0000000000
| 72>     d 4 
| 73>      1       5.7341846619     -0.0382893887
| 74>      2       2.2483686294      0.2367157716
| 75>      3       0.9837697836      0.4854240615
| 76>      4       0.4037944558      0.4383270193
| 77>     d 1 
| 78>      1       0.1497861817      1.0000000000
| 79>   end
| 80>   NewAuxGTO 44
| 81>     S 1
| 82>      1 1310.72 1.0
| 83>     S 1
| 84>      1  655.36 1.0
| 85>     S 1
| 86>      1  327.68 1.0
| 87>     S 1
| 88>      1  163.84 1.0
| 89>     S 1
| 90>      1   81.82 1.0
| 91>     S 1
| 92>      1   40.96 1.0
| 93>     S 1
| 94>      1   20.48 1.0
| 95>     S 1
| 96>      1   10.24 1.0
| 97>     S 1
| 98>      1    5.12 1.0
| 99>     S 1
|100>      1    2.56 1.0
|101>     S 1
|102>      1    1.28 1.0
|103>     S 1
|104>      1    0.64 1.0
|105>     S 1
|106>      1    0.32 1.0
|107>     S 1
|108>      1    0.16 1.0
|109>     S 1
|110>      1    0.08 1.0
|111>     S 1
|112>      1    0.04 1.0
|113>     S 1
|114>      1    0.02 1.0
|115>     S 1
|116>      1    0.01 1.0
|117>   end
|118> end
|119> 
|120> * xyz 0 5
|121> 44  0.0 0.0 0.0
|122> *
|123> 
|124> 
|125>                          ****END OF INPUT****
================================================================================

                       ****************************
                       * Single Point Calculation *
                       ****************************

---------------------------------
CARTESIAN COORDINATES (ANGSTROEM)
---------------------------------
  Ru     0.000000    0.000000    0.000000

----------------------------
CARTESIAN COORDINATES (A.U.)
----------------------------
  NO LB      ZA    FRAG     MASS         X           Y           Z
   0 Ru   16.0000*   0   101.070    0.000000    0.000000    0.000000
* core charge reduced due to ECP

--------------------------------
INTERNAL COORDINATES (ANGSTROEM)
--------------------------------
 Ru     0   0   0     0.000000000000     0.00000000     0.00000000

---------------------------
INTERNAL COORDINATES (A.U.)
---------------------------
 Ru     0   0   0     0.000000000000     0.00000000     0.00000000

---------------------
BASIS SET INFORMATION
---------------------
There are 1 groups of distinct atoms

 Group   1 Type Ru  : 7s6p5d contracted to 5s3p2d pattern {31111/411/41}

Atom   0Ru   basis set group =>   1
---------------------------------
AUXILIARY/J BASIS SET INFORMATION
---------------------------------
There are 1 groups of distinct atoms

 Group   1 Type Ru  : 18s contracted to 18s pattern {111111111111111111}

Atom   0Ru   basis set group =>   1
-------------------------
ECP PARAMETER INFORMATION
-------------------------

 Group 1, Type Ru ECP (replacing 28 core electrons, lmax=3)

Atom   0Ru   ECP group =>   1

------------------------------------------------------------------------------
                             ORCA STARTUP CALCULATIONS
------------------------------------------------------------------------------
------------------------------------------------------------------------------
                   ___                                                        
                  /   \      - P O W E R E D   B Y -                         
                 /     \                                                     
                 |  |  |   _    _      __       _____    __    __             
                 |  |  |  | |  | |    /  \     |  _  \  |  |  /  |          
                  \  \/   | |  | |   /    \    | | | |  |  | /  /          
                 / \  \   | |__| |  /  /\  \   | |_| |  |  |/  /          
                |  |  |   |  __  | /  /__\  \  |    /   |      \           
                |  |  |   | |  | | |   __   |  |    \   |  |\   \          
                \     /   | |  | | |  |  |  |  | |\  \  |  | \   \       
                 \___/    |_|  |_| |__|  |__|  |_| \__\ |__|  \__/        
                                                                              
                      - O R C A' S   B I G   F R I E N D -                    
                                      &                                       
                       - I N T E G R A L  F E E D E R -                       
                                                                              
 v1 FN, 2020, v2 2021, v3 2022-2024                                           
------------------------------------------------------------------------------


----------------------
SHARK INTEGRAL PACKAGE
----------------------

Number of atoms                             ...      1
Number of basis functions                   ...     24
Number of shells                            ...     10
Maximum angular momentum                    ...      2
Integral batch strategy                     ... SHARK/LIBINT Hybrid
RI-J (if used) integral strategy            ... SPLIT-RIJ (Revised 2003 algorithm where possible)
Printlevel                                  ...      1
Contraction scheme used                     ... SEGMENTED contraction
Prescreening option                         ... SCHWARTZ
   Thresh                                   ... 1.000e-10
   Tcut                                     ... 1.000e-11
   Tpresel                                  ... 1.000e-11 
Coulomb Range Separation                    ... NOT USED
Exchange Range Separation                   ... NOT USED
Multipole approximations                    ... NOT USED
Finite Nucleus Model                        ... NOT USED
CABS basis                                  ... NOT available
Auxiliary Coulomb fitting basis             ... AVAILABLE
   # of basis functions in Aux-J            ...     18
   # of shells in Aux-J                     ...     18
   Maximum angular momentum in Aux-J        ...      0
Auxiliary J/K fitting basis                 ... NOT available
Auxiliary Correlation fitting basis         ... NOT available
Auxiliary 'external' fitting basis          ... NOT available

Checking pre-screening integrals            ... done (  0.0 sec) Dimension = 10
   => SHARK Basis and OBASIS are compatible. Storing Pre-screening
Shell pair information
Shell pair cut-off parameter TPreSel        ...   1.0e-11
Total number of shell pairs                 ...        55
Shell pairs after pre-screening             ...        55
Total number of primitive shell pairs       ...       186
Primitive shell pairs kept                  ...       186
          la=0 lb=0:     15 shell pairs
          la=1 lb=0:     15 shell pairs
          la=1 lb=1:      6 shell pairs
          la=2 lb=0:     10 shell pairs
          la=2 lb=1:      6 shell pairs
          la=2 lb=2:      3 shell pairs

Checking whether 4 symmetric matrices of dimension 24 fit in memory
:Max Core in MB      =   4096.00
 MB in use           =      1.24
 MB left             =   4094.76
 MB needed           =      0.01
 Data fit in memory  = YES
Calculating RI/J V-Matrix + Cholesky decomp.... done (  0.0 sec)
Calculating Nuclear repulsion               ... done (  0.0 sec) ENN=      0.000000000000 Eh

Diagonalization of the overlap matrix:
Smallest eigenvalue                        ... 2.539e-02
Time for diagonalization                   ...    0.000 sec
Threshold for overlap eigenvalues          ... 1.000e-07
Number of eigenvalues below threshold      ... 0
Time for construction of square roots      ...    0.001 sec
Total time needed                          ...    0.002 sec

-------------------
DFT GRID GENERATION
-------------------

General Integration Accuracy     IntAcc      ... 4.388
Radial Grid Type                 RadialGrid  ... OptM3 with GC (2021)
Angular Grid (max. ang.)         AngularGrid ... 4 (Lebedev-302)
Angular grid pruning method      GridPruning ... 4 (adaptive)
Weight generation scheme         WeightScheme... mBecke (2022)
Basis function cutoff            BFCut       ... 1.0000e-10
Integration weight cutoff        WCut        ... 1.0000e-14
Partially contracted basis set               ... off
Rotationally invariant grid construction     ... off
Angular grids for H and He will be reduced by one unit

Total number of grid points                  ...    11810
Total number of batches                      ...      185
Average number of points per batch           ...       63
Average number of grid points per atom       ...    11810
Grids setup in   0.2 sec
Initializing property integral containers    ... done (  0.0 sec)

SHARK setup successfully completed in   0.3 seconds

Maximum memory used throughout the entire STARTUP-calculation: 6.3 MB
-------------------------------------------------------------------------------
                                 ORCA GUESS
                   Start orbitals & Density for SCF / CASSCF
-------------------------------------------------------------------------------

------------
SCF SETTINGS
------------
Hamiltonian:
 Ab initio Hamiltonian  Method          .... Hartree-Fock(GTOs)


General Settings:
 Integral files         IntName         .... bbcp_def2svp_Compound_4_atom44
 Hartree-Fock type      HFTyp           .... ROHF
 Total Charge           Charge          ....    0
 Multiplicity           Mult            ....    5
 Number of Electrons    NEL             ....   16
 Basis Dimension        Dim             ....   24
 Nuclear Repulsion      ENuc            ....      0.0000000000 Eh

Convergence Acceleration:
 AO-DIIS                CNVDIIS         .... on
   Start iteration      DIISMaxIt       ....    12
   Startup error        DIISStart       ....  0.200000
   # of expansion vecs  DIISMaxEq       ....     8
   Bias factor          DIISBfac        ....   1.050
   Max. coefficient     DIISMaxC        ....  10.000
 MO-DIIS                CNVKDIIS        .... off
 Trust-Rad. Augm. Hess. CNVTRAH         .... off
 SOSCF                 CNVSOSCF           .... on
   Start iteration     SOSCFMaxIt         ....   150
   Startup grad/error  SOSCFStart         ....  0.000100
   Hessian update      SOSCFHessUp        .... L-BFGS
   Autom. constraints  SOSCFAutoConstrain .... off
 Level Shifting         CNVShift        .... on
   Level shift para.    LevelShift      ....    1.0000
   Turn off err/grad.   ShiftErr        ....    0.0010
 Zerner damping         CNVZerner       .... off
 Static damping         CNVDamp         .... on
   Fraction old density DampFac         ....    0.7000
   Max. Damping (<1)    DampMax         ....    0.9800
   Min. Damping (>=0)   DampMin         ....    0.0000
   Turn off err/grad.   DampErr         ....    0.1000

SCF Procedure:
 Maximum # iterations   MaxIter         ....  1000
 SCF integral mode      SCFMode         .... Direct
   Integral package                     .... SHARK and LIBINT hybrid scheme
 Reset frequency        DirectResetFreq ....    20
 Integral Threshold     Thresh          ....  1.000e-10 Eh
 Primitive CutOff       TCut            ....  1.000e-11 Eh

Convergence Tolerance:
 Convergence Check Mode ConvCheckMode   .... Total+1el-Energy
 Convergence forced     ConvForced      .... -1
 Energy Change          TolE            ....  1.000e-06 Eh
 1-El. energy change                    ....  1.000e-03 Eh
 Orbital Gradient       TolG            ....  5.000e-05
 Orbital Rotation angle TolX            ....  5.000e-05
 DIIS Error             TolErr          ....  1.000e-06


--------------------
INITIAL GUESS: HCORE
--------------------

Orthogonalizing HCORE                      ... done
Diagonalizing the Hamiltonian (no sym.)    ... done
Back transforming and storing orbitals     ... done
AVERAGE-CONFIGURATION (SAHF) CASE FOUND

-------------------
FINAL ROHF SETTINGS
-------------------
Number of operators             ... 2
  operator   0:   5 orbitals  10 electrons n(mue)= 2.000
  operator   1:   5 orbitals   6 electrons n(mue)= 1.200
Vector coupling coefficients a and b (Zerner convention):
   1.000    1.000           1.000    1.000 
   1.000    0.972           1.000    1.389 


   => ROHF data were saved in the ROHF file

Making the density                         ... done

                      -----------------
                      INTIAL GUESS DONE 
                      -----------------

             **** ENERGY FILE WAS UPDATED (bbcp_def2svp_Compound_4_atom44.en.tmp) ****
Finished Guess after   0.0 sec
Maximum memory used throughout the entire GUESS-calculation: 3.7 MB

-------------------------------------------------------------------------------------------
                                      ORCA LEAN-SCF
                              memory conserving SCF solver
-------------------------------------------------------------------------------------------

----------------------------------------D-I-I-S--------------------------------------------
Iteration    Energy (Eh)           Delta-E    RMSDP     MaxDP     DIISErr   Damp  Time(sec)
-------------------------------------------------------------------------------------------
               ***  Starting incremental Fock matrix formation  ***
    1    -90.8782577680816530     0.00e+00  1.69e-01  2.35e+00  5.45e-01  0.700   0.0
    2    -91.6956450305652595    -8.17e-01  1.16e-01  1.64e+00  3.60e-01  0.700   0.0
                               ***Turning on AO-DIIS***
    3    -91.9318617755882883    -2.36e-01  7.98e-02  1.12e+00  1.29e-01  0.700   0.0
    4    -92.5074618092707226    -5.76e-01  5.64e-02  7.69e-01  7.09e-02  0.700   0.0
    5    -92.9458569313877376    -4.38e-01  1.34e-01  1.82e+00  3.35e-02  0.000   0.0
    6    -94.0287390648831263    -1.08e+00  7.27e-04  1.11e-02  8.36e-02  0.000   0.0
    7    -94.0271065833472619     1.63e-03  8.73e-06  1.19e-04  8.51e-02  0.000   0.0
    8    -94.0271440510647238    -3.75e-05  8.37e-06  1.14e-04  8.51e-02  0.000   0.0
    9    -94.0271799458886193    -3.59e-05  2.68e-03  3.91e-02  8.50e-02  0.000   0.0
   10    -94.0197332455743293     7.45e-03  1.55e-03  2.78e-02  9.14e-02  0.000   0.0
   11    -94.0182316297795637     1.50e-03  1.02e-03  1.59e-02  9.32e-02  0.000   0.0
   12    -94.0142959344629361     3.94e-03  2.60e-03  3.06e-02  9.64e-02  0.000   0.0
   13    -94.0300167071316650    -1.57e-02  9.00e-03  7.59e-02  8.21e-02  0.000   0.0
   14    -94.0638307268617950    -3.38e-02  3.57e-03  5.82e-02  1.30e-02  0.000   0.0
   15    -94.0652460285506606    -1.42e-03  4.27e-03  6.76e-02  9.43e-03  0.000   0.0
   16    -94.0661912383377370    -9.45e-04  2.75e-03  4.43e-02  5.38e-03  0.000   0.0
   17    -94.0664945696779569    -3.03e-04  1.34e-03  2.24e-02  2.66e-03  0.000   0.0
   18    -94.0665671744124978    -7.26e-05  7.45e-04  1.26e-02  1.30e-03  0.000   0.0
   19    -94.0665864705724175    -1.93e-05  4.17e-04  7.13e-03  5.50e-04  0.000   0.0
   20    -94.0665906614163845    -4.19e-06  1.27e-04  2.19e-03  1.44e-04  0.000   0.0
               *** Restarting incremental Fock matrix formation ***
                             ****Resetting DIIS****
                              *** Initializing SOSCF ***
---------------------------------------S-O-S-C-F--------------------------------------
Iteration    Energy (Eh)           Delta-E    RMSDP     MaxDP     MaxGrad    Time(sec)
--------------------------------------------------------------------------------------
   21    -94.0665909852794044    -3.24e-07  8.66e-06  1.37e-04  2.59e-05     0.0
               *** Restarting incremental Fock matrix formation ***
   22    -94.0665909973628516    -1.21e-08  1.12e-05  1.60e-04  2.51e-05     0.0
   23    -94.0665910149545255    -1.76e-08  7.13e-05  8.36e-04  2.36e-05     0.0
                 **** Energy Check signals convergence ****

               *****************************************************
               *                     SUCCESS                       *
               *           SCF CONVERGED AFTER  23 CYCLES          *
               *****************************************************

             **** ENERGY FILE WAS UPDATED (bbcp_def2svp_Compound_4_atom44.en.tmp) ****

----------------
TOTAL SCF ENERGY
----------------

Total Energy       :        -94.06659109193842 Eh           -2559.68208 eV

Components:
Nuclear Repulsion  :          0.00000000000000 Eh               0.00000 eV
Electronic Energy  :        -94.06659109193842 Eh           -2559.68208 eV
One Electron Energy:       -164.80367047199442 Eh           -4484.53586 eV
Two Electron Energy:         70.73707938005600 Eh            1924.85379 eV

Virial components:
Potential Energy   :       -128.52285551799787 Eh           -3497.28470 eV
Kinetic Energy     :         34.45626442605944 Eh             937.60262 eV
Virial Ratio       :          3.73002870911321

---------------
SCF CONVERGENCE
---------------

  Last Energy change         ...    1.7592e-08  Tolerance :   1.0000e-06
  Last MAX-Density change    ...    8.3611e-04  Tolerance :   1.0000e-05
  Last RMS-Density change    ...    7.1283e-05  Tolerance :   1.0000e-06
  Last DIIS Error            ...    2.5855e-05  Tolerance :   1.0000e-06
  Last Orbital Gradient      ...    2.3589e-05  Tolerance :   5.0000e-05
  Last Orbital Rotation      ...    8.2629e-04  Tolerance :   5.0000e-05


----------------
ORBITAL ENERGIES
----------------

  NO   OCC          E(Eh)            E(eV) 
   0   2.0000      -3.513868       -95.6172 
   1   2.0000      -2.208624       -60.0997 
   2   2.0000      -2.200881       -59.8890 
   3   2.0000      -2.199290       -59.8457 
   4   2.0000      -0.370172       -10.0729 
   5   1.2000      -0.436991       -11.8911 
   6   1.2000      -0.431748       -11.7484 
   7   1.2000      -0.427996       -11.6464 
   8   1.2000      -0.409505       -11.1432 
   9   1.2000      -0.246964        -6.7202 
  10   0.0000       0.013057         0.3553 
  11   0.0000       0.018349         0.4993 
  12   0.0000       0.019422         0.5285 
  13   0.0000       0.158331         4.3084 
  14   0.0000       0.368857        10.0371 
  15   0.0000       0.383193        10.4272 
  16   0.0000       0.386107        10.5065 
  17   0.0000       0.484609        13.1869 
  18   0.0000       0.497715        13.5435 
  19   0.0000       0.486760        13.2454 
  20   0.0000       0.488471        13.2920 
*Only the first 10 virtual orbitals were printed.

Warning: MO coefficients are modified such that the real solid harmonic m components
have the correct order within each shell (0, +1, -1, +2, -2, ...) and all s orbitals
come before all p orbitals etc. (with increasing orbital energy within each block of given angular momentum).

CleanUpVectors: The p-vectors have cracked symmetry
CleanUpVectors: The p-vectors have cracked symmetry
CleanUpVectors: The p-vectors have cracked symmetry
CleanUpVectors: The d-vectors have cracked symmetry at i=4
CleanUpVectors: The d-vectors have cracked symmetry at i=5
CleanUpVectors: The d-vectors have cracked symmetry at i=6
CleanUpVectors: The d-vectors have cracked symmetry at i=7
CleanUpVectors: The d-vectors have cracked symmetry at i=8
CleanUpVectors: The p-vectors have cracked symmetry
CleanUpVectors: The p-vectors have cracked symmetry
CleanUpVectors: The p-vectors have cracked symmetry
CleanUpVectors: The p-vectors have cracked symmetry
CleanUpVectors: The p-vectors have cracked symmetry
CleanUpVectors: The p-vectors have cracked symmetry
CleanUpVectors: The d-vectors have cracked symmetry at i=17
CleanUpVectors: The d-vectors have cracked symmetry at i=18
CleanUpVectors: The d-vectors have cracked symmetry at i=19
--------------------------
ATOM BASIS FOR ELEMENT Ru
--------------------------
 NewGTO Ru
 S 7
    1          7.936570000000        -0.588370609311
    2          5.984245000000         0.809531629876
    3          4.882220000000         0.255227723237
    4          1.103100216300        -0.880825820616
    5          0.498188752600        -0.400514144355
    6          0.106787113900        -0.012754865418
    7          0.039191775900         0.002859925590
 P 18
    1          3.754609000000         0.704805605697
    2          2.916571000000        -0.746395344052
    3          1.032220956800        -0.643889931365
    4          0.452495537700        -0.269155471169
    5          3.754609000000        -0.009384851053
    6          2.916571000000         0.009938639922
    7          1.032220956800         0.008573727353
    8          0.452495537700         0.003583944263
    9          3.754609000000        -0.006697373087
   10          2.916571000000         0.007092577086
   11          1.032220956800         0.006118525537
   12          0.452495537700         0.002557633756
   13          0.169870422000        -0.029864826537
   14          0.169870422000         0.000397665607
   15          0.169870422000         0.000283788727
   16          0.043000000000         0.001881931508
   17          0.043000000000        -0.000025058891
   18          0.043000000000        -0.000017882942
 D 18
    1          7.936570000000        -0.000038713997
    2          5.984245000000         0.000070643849
    3          4.882220000000         0.000027299859
    4          1.103100216300        -0.000687707486
    5          0.498188752600         0.000453396311
    6          0.106787113900         0.005350133258
    7          0.039191775900        -0.016479821440
    8          5.734184661900        -0.002658013116
    9          2.248368629400         0.016432584773
   10          0.983769783600         0.033697678813
   11          0.403794455800         0.030428246729
   12          5.734184661900        -0.000332726447
   13          2.248368629400         0.002057008488
   14          0.983769783600         0.004218229348
   15          0.403794455800         0.003808966311
   16          5.734184661900         0.000419909895
   17          2.248368629400        -0.002596001090
   18          0.983769783600        -0.005323521048
 D 18
    1          5.734184661900        -0.000612912809
    2          2.248368629400         0.003789199398
    3          0.983769783600         0.007770367597
    4          0.403794455800         0.007016467328
    5          5.734184661900        -0.002408136560
    6          2.248368629400         0.014887777616
    7          0.983769783600         0.030529801324
    8          0.403794455800         0.027567724543
    9          5.734184661900        -0.033854998586
   10          2.248368629400         0.209301124539
   11          0.983769783600         0.429205883763
   12          0.403794455800         0.387563268113
   13          5.734184661900        -0.000289608726
   14          2.248368629400         0.001790442609
   15          0.983769783600         0.003671592803
   16          0.403794455800         0.003315365794
   17          5.734184661900         0.000473769533
   18          2.248368629400        -0.002928976524
 P 18
    1          3.754609000000         0.456070095286
    2          2.916571000000        -0.482982247774
    3          1.032220956800        -0.416652393196
    4          0.452495537700        -0.174166834643
    5          3.754609000000        -0.006072809125
    6          2.916571000000         0.006431158350
    7          1.032220956800         0.005547942041
    8          0.452495537700         0.002319121454
    9          3.754609000000        -0.004333778786
   10          2.916571000000         0.004589509904
   11          1.032220956800         0.003959214431
   12          0.452495537700         0.001655009923
   13          0.169870422000         1.436657234917
   14          0.169870422000        -0.019129833891
   15          0.169870422000        -0.013651749395
   16          0.043000000000        -0.761548959061
   17          0.043000000000         0.010140418141
   18          0.043000000000         0.007236573407
 D 18
    1          7.936570000000        -0.000210502966
    2          5.984245000000         0.000384117909
    3          4.882220000000         0.000148439882
    4          1.103100216300        -0.003613394298
    5          0.498188752600        -0.000066825872
    6          0.106787113900         0.048575567163
    7          0.039191775900        -0.032387640521
    8          5.734184661900        -0.025235068529
    9          2.248368629400         0.156010292173
   10          0.983769783600         0.319924393506
   11          0.403794455800         0.288884538137
   12          5.734184661900         0.000611373902
   13          2.248368629400        -0.003779685438
   14          0.983769783600        -0.007750857682
   15          0.403794455800        -0.006998850313
   16          5.734184661900         0.000387425792
   17          2.248368629400        -0.002395175228
   18          0.983769783600        -0.004911695064
 S 18
    1          7.936570000000        -0.914757773839
    2          5.984245000000         1.258603573800
    3          4.882220000000         0.396810344085
    4          1.103100216300        -3.697668856476
    5          0.498188752600         3.960067022051
    6          0.106787113900        -1.773506643492
    7          0.039191775900         0.718545443451
    8          5.734184661900         0.004465254012
    9          2.248368629400        -0.010824074518
   10          0.983769783600        -0.009712048457
   11          0.403794455800        -0.003599603420
   12          5.734184661900        -0.000098440956
   13          2.248368629400         0.000238627465
   14          0.983769783600         0.000214111747
   15          0.403794455800         0.000079356830
   16          5.734184661900        -0.000077851086
   17          2.248368629400         0.000188716242
   18          0.983769783600         0.000169328222
 S 18
    1          7.936570000000        -1.816813126966
    2          5.984245000000         2.499730048676
    3          4.882220000000         0.788110538842
    4          1.103100216300        -1.453632148195
    5          0.498188752600         0.941437202667
    6          0.106787113900        -0.288965441757
    7          0.039191775900         0.117357944461
    8          5.734184661900        -0.000043679129
    9          2.248368629400         0.000105881132
   10          0.983769783600         0.000095003289
   11          0.403794455800         0.000035211332
   12          5.734184661900         0.000000960546
   13          2.248368629400        -0.000002328428
   14          0.983769783600        -0.000002089214
   15          0.403794455800        -0.000000774331
   16          5.734184661900         0.000000763834
   17          2.248368629400        -0.000001851585
   18          0.983769783600        -0.000001661360
 end
-------------------------------------------
RADIAL EXPECTATION VALUES <R**-3> TO <R**3>
-------------------------------------------
   0 :     0.000002     1.233857     1.056547     1.043913     1.201036     1.523215
   1 :     1.293334     1.058010     0.972211     1.149853     1.478050     2.125235
   2 :     1.291076     1.056495     0.971348     1.151475     1.483407     2.140213
   3 :     1.290613     1.056184     0.971171     1.151810     1.484513     2.143316
   4 :     0.649121     0.626481     0.722626     1.671339     3.380955    41.059423
   5 :     0.665580     0.639715     0.731948     1.640480     3.240006    37.964044
   6 :     0.666101     0.639843     0.732119     1.639339     3.233037    38.136128
   7 :     0.664993     0.638973     0.731502     1.641403     3.242538    38.323218
   8 :     0.659441     0.634608     0.728406     1.651796     3.290461    39.268459
   9 :     0.001976     0.166735     0.348446     3.473736    13.940968    63.647405
  10 :     0.029623     0.062862     0.222146     5.139622    29.128090   179.151142
  11 :     0.028946     0.061976     0.220856     5.159990    29.321899   180.664757
  12 :     0.028813     0.061802     0.220602     5.164018    29.360270   180.964663
  13 :     0.000128     0.109962     0.260609     5.124394    30.730859   201.513462
  14 :     0.220674     0.242330     0.404981     3.430440    15.668978    89.454429
  15 :     0.223609     0.244731     0.407133     3.408449    15.469811    87.925836
  16 :     0.224205     0.245216     0.407564     3.404087    15.430334    87.622827
  17 :     0.264364     0.268860     0.415685     3.184627    11.615333   227.668347
  18 :     0.282918     0.283384     0.425997     3.149962    11.455430   224.531959
  19 :     0.265953     0.270026     0.416508     3.181952    11.603290   227.456685
  20 :     0.267061     0.270896     0.417125     3.179888    11.593788   227.269594
  21 :     0.272614     0.275262     0.420221     3.169495    11.545865   226.324354
  22 :     0.000019     0.714221     0.710236     2.077341     6.502550    29.463010
  23 :     0.000000    15.051399     3.157477     0.444182     0.373523     0.916042
Making the total density                ... o.k.
Making exponents                        ... done
Making rho(0)                           ... done (         0.001411142)
Integral calculation                    ... Solving the equation system             ... done
atomic density will be written to file bbcp_def2svp_Compound_4_atom44.adf

-------
TIMINGS
-------

Total SCF time: 0 days 0 hours 0 min 0 sec 

Total time                  ....       0.588 sec
Sum of individual times     ....       0.541 sec  ( 92.1%)

SCF preparation             ....       0.026 sec  (  4.5%)
Fock matrix formation       ....       0.255 sec  ( 43.4%)
  Startup                   ....       0.005 sec  (  2.1% of F)
  Coulomb+Exchange Fock     ....       0.156 sec  ( 61.0% of F)
Diagonalization             ....       0.000 sec  (  0.0%)
Density matrix formation    ....       0.080 sec  ( 13.5%)
Total Energy calculation    ....       0.009 sec  (  1.5%)
Population analysis         ....       0.000 sec  (  0.0%)
Orbital Transformation      ....       0.007 sec  (  1.2%)
Orbital Orthonormalization  ....       0.000 sec  (  0.0%)
DIIS solution               ....       0.151 sec  ( 25.6%)
SOSCF solution              ....       0.013 sec  (  2.3%)
Finished LeanSCF after   0.6 sec

Maximum memory used throughout the entire LEANSCF-calculation: 5.8 MB

-------------------------   --------------------
FINAL SINGLE POINT ENERGY       -94.066591091938
-------------------------   --------------------


------------------------------------------------------------------------------
                              ORCA PROPERTY CALCULATIONS
------------------------------------------------------------------------------

GBWName                                 ... bbcp_def2svp_Compound_4_atom44.gbw
Number of atoms                         ...      1
Number of basis functions               ...     24
Max core memory                         ...   4096 MB

Electric properties:
Dipole moment                           ... YES
Quadrupole moment                       ...  NO
Static polarizability (Dipole/Dipole)   ...  NO
Static polarizability (Dipole/Quad.)    ...  NO
Static polarizability (Quad./Quad.)     ...  NO
Static polarizability (Velocity)        ...  NO
Static hyperpolarizability              ...  NO

Atomic electric properties:
Dipole moment                           ...  NO
Quadrupole moment                       ...  NO
Static polarizability                   ...  NO

Choice of electric origin               ... Center of mass
Position of electric origin             ...     0.000000     0.000000     0.000000

General magnetic properties:
Magnetizability                         ...  NO

EPR properties:
g-Tensor (aka g-matrix)                 ...  NO
Zero-Field splitting spin-orbit         ...  NO
Zero-field splitting spin-spin          ...  NO
Hyperfine couplings                     ...  NO (   0 nuclei)
Quadrupole couplings                    ...  NO (   0 nuclei)
Contact density                         ...  NO (   0 nuclei)

NMR properties:
Chemical shifts                         ...  NO (   0 nuclei)
Spin-rotation constants                 ...  NO (   0 nuclei)
Spin-spin couplings                     ...  NO (   0 nuclei,    0 pairs)

Choice of magnetic origin               ... GIAO
Position of magnetic origin             ...     0.000000     0.000000     0.000000

Properties with geometric perturbations:
SCF Hessian                             ...  NO
IR spectrum                             ...  NO
VCD spectrum                            ...  NO
X-ray spectroscopy properties:
SCF XES/XAS/RIXS spectra                ...  NO

SCF SOC stabilization energy            ...  NO
Diagonal Born-Oppenheimer correction    ...  NO

-------------
DIPOLE MOMENT
-------------

Method             : SCF
Type of density    : Electron Density
Multiplicity       :   5
Irrep              :   0
Energy             :   -94.0665910919384203 Eh
Basis              : AO
                                X                 Y                 Z
Electronic contribution:     -0.000000000       0.000000000       0.000000000
Nuclear contribution   :      0.000000000       0.000000000       0.000000000
                        -----------------------------------------
Total Dipole Moment    :     -0.000000000       0.000000000       0.000000000
                        -----------------------------------------
Magnitude (a.u.)       :      0.000000000
Magnitude (Debye)      :      0.000000000



--------------------
Rotational spectrum 
--------------------
 
Rotational constants in cm-1:             0.000000             0.000000             0.000000 
Rotational constants in MHz :             0.000000             0.000000             0.000000 

Dipole components along the rotational axes: 
x,y,z [a.u.] :    -0.000000     0.000000     0.000000 
x,y,z [Debye]:    -0.000000     0.000000     0.000000 

 

Dipole moment calculation done in   0.0 sec 

Maximum memory used throughout the entire PROP-calculation: 1.6 MB

--------------------------------
SUGGESTED CITATIONS FOR THIS RUN
--------------------------------

Below you find a list of papers that are relevant to this ORCA run
We neither can nor want to force you to cite these papers, but we appreciate if you do
You receive ORCA, which is the product of decades of hard work by many enthusiastic individuals, for free
The only thing we kindly ask in return is that you cite our papers,
We deeply appreciate it, if you show your appreciation for ORCA by not just citing the generic ORCA reference.

Please note that relegating all ORCA citations to the supporting information does *not* help us.
SI sections are not indexed - citations you put there will not count into any citation statistics
But we need these citations in order to attract the funding resources that allow us to do what we are doing

Therefore, if you are a happy ORCA user, please consider citing a few of the papers listed below in the main body of your paper

In addition to the list printed below, the program has created the file bbcp_def2svp_Compound_4_atom44.bibtex that contains the list in bibtex format
You can import this file easily into all common literature databanks and citation aid programs

It goes without saying that in many instances, there are alternative algorithms to achieve similar
results as the ones you have gotten from ORCA. It is, of course, also the case that in some instances
ORCA just re-implements algorithms worked out by others. We are fully aware of that and we are also
fully appreciative of our colleagues work. Hence this citation list should not be read as indicating
that the listed papers, which are focused on our own work, are the only ones worth citing. It simply
meant to make it easier for users to cite ORCA specific papers. It is not a substitute for doing your
own literature research and citing the relevant literature in a scientifically appropriate manner.

List of essential papers. We consider these as the minimum necessary citations

  1. Neese, F.
     Software update: the ORCA program system, version 6.0
     WIRES Comput. Molec. Sci. 2025 15(1), e70019
     doi.org/10.1002/wcms.70019

List of papers to cite with high priority. The work reported in these papers was absolutely
necessary for this run to complete.
Our perspective: the developers of density functionals and basis sets usually get cited in chemistry papers
Good! But without the algorithms to do something with them, the functionals or basis sets would not do anything.
Hence, in our opinion, the algorithm design and method developments papers are equally worthy of getting cited

  1. Neese, F.
     The SHARK Integral Generation and Digestion System
     J. Comp. Chem. 2022 44(3), 381
     doi.org/10.1002/jcc.26942

List of suggested additional citations. These are papers that are important in the 'surrounding' of 
of this run, or papers that preceded the highly important papers. If you like your results we are grateful for a citation.

  1. Neese, F.
     The ORCA program system
     WIRES Comput. Molec. Sci. 2012 2(1), 73-78
     doi.org/10.1002/wcms.81
  2. Neese, F.
     Software update: the ORCA program system, version 4.0
     WIRES Comput. Molec. Sci. 2018 8(1), 1-6
     doi.org/10.1002/wcms.1327
  3. Neese, F.; Wennmohs, F.; Becker, U.; Riplinger, C.
     The ORCA quantum chemistry program package
     J. Chem. Phys. 2020 152(22), 224108
     doi.org/10.1063/5.0004608
  4. Neese, F.
     Software update: The ORCA program system—Version 5.0
     WIRES Comput. Molec. Sci. 2022 12(1), e1606
     doi.org/10.1002/wcms.1606

List of optional additional citations

  1. Neese, F.
     Approximate second-order SCF convergence for spin unrestricted wavefunctions
     Chem. Phys. Lett. 2000 325(1-3), 93-98
     doi.org/10.1016/s0009-2614(00)00662-x

Timings for individual modules:

Sum of individual times          ...        0.978 sec (=   0.016 min)
Startup calculation              ...        0.291 sec (=   0.005 min)  29.8 %
SCF iterations                   ...        0.656 sec (=   0.011 min)  67.1 %
Property calculations            ...        0.031 sec (=   0.001 min)   3.1 %
                             ****ORCA TERMINATED NORMALLY****
TOTAL RUN TIME: 0 days 0 hours 0 minutes 1 seconds 85 msec
