
                                 *****************
                                 * O   R   C   A *
                                 *****************

                                            #,                                       
                                            ###                                      
                                            ####                                     
                                            #####                                    
                                            ######                                   
                                           ########,                                 
                                     ,,################,,,,,                         
                               ,,#################################,,                 
                          ,,##########################################,,             
                       ,#########################################, ''#####,          
                    ,#############################################,,   '####,        
                  ,##################################################,,,,####,       
                ,###########''''           ''''###############################       
              ,#####''   ,,,,##########,,,,          '''####'''          '####       
            ,##' ,,,,###########################,,,                        '##       
           ' ,,###''''                  '''############,,,                           
         ,,##''                                '''############,,,,        ,,,,,,###''
      ,#''                                            '''#######################'''  
     '                                                          ''''####''''         
             ,#######,   #######,   ,#######,      ##                                
            ,#'     '#,  ##    ##  ,#'     '#,    #''#        ,####,    ,#,          
            ##       ##  ##   ,#'  ##            #'  '#       #'       ,# #          
            ##       ##  #######   ##           ,######,      #####,      #          
            '#,     ,#'  ##    ##  '#,     ,#' ,#      #,     #,   #      #          
             '#######'   ##     ##  '#######'  #'      '#     '####' #    #          



                #########################################################
                #                        -***-                          #
                #          Department of theory and spectroscopy        #
                #                                                       #
                #                      Frank Neese                      #
                #                                                       #
                #     Directorship, Architecture, Infrastructure        #
                #                    SHARK, DRIVERS                     #
                #        Core code/Algorithms in most modules           #
                #                                                       #
                #        Max Planck Institute fuer Kohlenforschung      #
                #                Kaiser Wilhelm Platz 1                 #
                #                 D-45470 Muelheim/Ruhr                 #
                #                      Germany                          #
                #                                                       #
                #                  All rights reserved                  #
                #                        -***-                          #
                #########################################################


                         Program Version 6.1.1  -  RELEASE   -
                                (GIT: $487d211c$)
                          ($2025-11-21 10:33:24 +0100$)


 With contributions from (in alphabetic order):
[Max-Planck-Institut fuer Kohlenforschung]                               
  Daniel Aravena         : Magnetic Suceptibility                        
  Michael Atanasov       : Ab Initio Ligand Field Theory (pilot matlab implementation)
  Alexander A. Auer      : GIAO ZORA, VPT2 properties, NMR spectrum      
  Ute Becker             : All parallelization in ORCA, NUMFREQ, NUMCALC 
  Giovanni Bistoni       : ED, misc. LED, open-shell LED, HFLD           
  Dmytro Bykov           : pre 5.0 version of the SCF Hessian            
  Marcos Casanova-Páez   : Triplet and SCS-CIS(D). UHF-(DLPNO)-IP/EA/STEOM-CCSD. UHF-CVS-IP/STEOM-CCSD   
  Vijay G. Chilkuri      : MRCI spin determinant printing, contributions to CSF-ICE 
  Pauline Colinet        : FMM embedding                                 
  Dipayan Datta          : RHF DLPNO-CCSD density                        
  Achintya Kumar Dutta   : EOM-CC, STEOM-CC                              
  Nicolas Foglia         : Exact transition moments, OPA infrastructure, MCD improvements    
  Dmitry Ganyushin       : Spin-Orbit,Spin-Spin,Magnetic field MRCI      
  Miquel Garcia-Rates    : C-PCM and meta-GGA Hessian, CCSD/C-PCM, Gaussian charge scheme 
  Tiago L. C. Gouveia    : GS-ROHF, GS-ROCIS                             
  Yang Guo               : DLPNO-NEVPT2, F12-NEVPT2, CIM, IAO-localization        
  Andreas Hansen         : Spin unrestricted coupled pair/coupled cluster methods 
  Ingolf Harden          : AUTO-CI MPn and infrastructure                
  Benjamin Helmich-Paris : MC-RPA, TRAH-(SCF,CASSCF), AVAS, COSX integrals, SCF dyn. polar., MC-PDFT, srDFT 
  Lee Huntington         : MR-EOM, pCC                                   
  Robert Izsak           : Overlap fitted RIJCOSX, COSX-SCS-MP3, EOM     
  Riya Kayal             : Wick's Theorem for AUTO-CI, AUTO-CI UHF-CCSDT 
  Emily Kempfer          : AUTO-CI RHF CISDT and CCSDT, approximate NEVPT4
  Christian Kollmar      : KDIIS, OOCD, Brueckner-CCSD(T), CCSD density, CASPT2, CASPT2-K, improved NEVPT2 
  Axel Koslowski         : Symmetry handling                             
  Simone Kossmann        : meta-GGA functionals, TD-DFT gradient, OOMP2, (MP2 Hessian; deprecated post 5.0) 
  Lucas Lang             : DCDCAS, Hyperfine gauge corrections, ICE-SOC+SSC
  Marvin Lechner         : AUTO-CI (C++ implementation), FIC-MRCC        
  Spencer Leger          : CASSCF response                               
  Dagmar Lenk            : GEPOL surface, SMD, ORCA-2-JSON               
  Dimitrios Liakos       : Extrapolation schemes; Compound Job, Property file
  Dimitrios Manganas     : Further ROCIS development; embedding schemes. LFT, Crystal Embedding 
  Dimitrios Pantazis     : SARC Basis sets                               
  Anastasios Papadopoulos: AUTO-CI, single reference methods and gradients 
  Taras Petrenko         : pre 6.0 DFT Hessian and TD-DFT gradient,  ECA, NRVS 
  Petra Pikulova         : Analytic Raman intensities                    
  Peter Pinski           : DLPNO-MP2, DLPNO-MP2 Gradient                 
  Shashank Vittal Rao    : ES-AILFT, MagRelax                            
  Christoph Reimann      : Effective Core Potentials                     
  Marius Retegan         : Local ZFS, SOC                                
  Christoph Riplinger    : Optimizer, TS searches, QM/MM, DLPNO-CCSD(T), (RO)-DLPNO pert. Triples 
  Michael Roemelt        : Original ROCIS implementation, recursive CI coupling coefficients
  Masaaki Saitow         : Open-shell DLPNO-CCSD energy and density      
  Barbara Sandhoefer     : DKH picture change effects                    
  Yorick L. A. Schmerwitz: GMF and freeze-and-release deltaSCF, NEB S-IDPP initial path                    
  Kantharuban Sivalingam : CASSCF convergence/infrastructure, NEVPT2, NEVPT3, NEVPT4(SD), FIC-MRCI and CEPA variants
  Bernardo de Souza      : ESD, SOC TD-DFT                               
  Georgi L. Stoychev     : AutoAux, RI-MP2 NMR, DLPNO-MP2 response, X2C  
  Van Anh Tran           : RI-MP2 g-tensors                              
  Willem Van den Heuvel  : Paramagnetic NMR                              
  Zikuan Wang            : NOTCH, Electric field optimization            
  Frank Wennmohs         : Technical directorship and infrastructure     
  Hang Xu                : AUTO-CI-Response properties                   
                                                                         
[FACCTs GmbH]                                                            
  Markus Bursch, Nicolas Foglia, Miquel Garcia-Rates, Ingolf Harden, Hagen Neugebauer, Anastasios Papadopoulos, 
  Christoph Riplinger, Bernardo de Souza, Georgi L. Stoychev                                                    
                                                                 
  APM, various basis sets, CI-OPT, improved COSX, DLPNO-Multilevel,           
  DOCKER, DRACO, updates on ESD, Fragmentator, GOAT, IRC, LR-CPCM, L-BFGS, MBIS, meta-GGA TD-DFT gradient, ML-optimized integration grids, 
  MM, NACMEs, nearIR, NEB, NEB-TS, NL-DFT gradient (VV10), 2- and 3-layer-ONIOM, interface openCOSMO-RS, QMMM,   
  Crystal-QMMM, RESP, rigid body optimization, SF, symmetry and pop. for TD-DFT, various functionals, SOLVATOR                                   
                                                                         
[Other institutions]                                                     
  V. Asgeirsson          : NEB                                           
  Christoph Bannwarth    : sTDA-DFT, sTD-DFT, PBEh-3c, B97-3c, D3        
  Giovanni Bistoni       : ETS/NOCV, ADLD/ADEX, COVALED                  
  Martin Brehm           : Molecular dynamics                            
  Ronald Cardenas        : ETS/NOCV                                      
  Martina Colucci        : COVALED                                       
  Sebastian Ehlert       : rSCAN, r2SCAN, r2SCAN-3c, D4, dhf basis sets  
  Marvin Friede          : D4 for Fr, Ra, Ac-Lr                          
  Lars Goerigk           : TD-DFT with DH, B97 family of functionals     
  Stefan Grimme          : VdW corrections, initial TS optimization, DFT functionals, gCP, sTDA/sTD-DF 
  Waldemar Hujo          : DFT-NL                                        
  H. Jonsson             : NEB                                           
  Holger Kruse           : gCP                                           
  Marcel Mueller         : wB97X-3c, vDZP basis set                      
  Hagen Neugebauer       : wr2SCAN, Native XTB                           
  Gianluca Regni         : ADLD/ADEX                                     
  Tobias Risthaus        : pre 6.0 range-separated hybrid DFT and stability analysis
  Lukas Wittmann         : regularized MP2, r2SCAN double-hybrids, wr2SCAN        
                                                                         
We gratefully acknowledge several colleagues who have allowed us to      
interface, adapt or use parts of their codes:                            
  Ed Valeev, F. Pavosevic, A. Kumar             : LibInt (2-el integral package), F12 methods 
  Garnet Chan, S. Sharma, J. Yang, R. Olivares  : DMRG                   
  Ulf Ekstrom                                   : XCFun DFT Library      
  Mihaly Kallay                                 : mrcc  (arbitrary order and MRCC methods)
  Frank Weinhold                                : gennbo (NPA and NBO analysis)           
  Simon Mueller                                 : openCOSMO-RS                            
  Christopher J. Cramer and Donald G. Truhlar   : smd solvation model                     
  S Lehtola, MJT Oliveira, MAL Marques          : LibXC Library                           
  Liviu Ungur et al                             : ANISO software                          


 Your calculation uses the libint2 library for the computation of 2-el integrals
 For citations please refer to: http://libint.valeyev.net

 Your ORCA version has been built with support for libXC version: 7.0.0
 For citations please refer to: https://libxc.gitlab.io

 This ORCA versions uses:
   CBLAS   interface :  Fast vector & matrix operations
   LAPACKE interface :  Fast linear algebra routines
   SCALAPACK package :  Parallel linear algebra routines
   Shared memory     :  Shared parallel matrices
   BLAS/LAPACK       :  OpenBLAS 0.3.29  USE64BITINT DYNAMIC_ARCH NO_AFFINITY Cooperlake SINGLE_THREADED
        Core in use  :  Cooperlake
   Copyright (c) 2011-2014, The OpenBLAS Project


  ***********************************
  * Starting time: Mon Jul 13 23:26:02 2026
  * Host name:     c1-5
  * Process ID:    2591117
  * Working dir.:  /cluster/projects/nn14654k/ylvaos/TPhP_bsse/orca/opt1_bp86
  ***********************************

Warning: RI is on but no J-basis has been assigned. Assigning Def2/J (nothing to worry about!)
================================================================================

cite the ECPs for Ru [Def2-ECP] as follows:
Ce-Yb(ecp-28): M. Dolg, H. Stoll, H.Preuss, J. Chem. Phys., 1989, 90, 1730-1734.
Y-Cd(ecp-28), Hf-Hg(ecp-46): D. Andrae,U. Haeussermann, M. Dolg, H. Stoll, H. Preuss, Theor. Chim. Acta, 1990, 77, 123-141.
In-Sb(ecp-28), Tl-Bi(ecp-46): B. Metz, H. Stoll, M. Dolg, J. Chem. Phys., 2000, 113, 2563-2569.
Te-Xe(ecp-28), Po-Rn(ecp-46): K. A. Peterson, D. Figgen, E. Goll, H. Stoll, M. Dolg, J. Chem. Phys., 2003, 119, 11113-11123.
Rb(ecp-28), Cs(ecp-46): T. Leininger, A. Nicklass, W. Kuechle, H. Stoll, M. Dolg, A. Bergner, Chem. Phys. Lett., 1996, 255, 274-280.
Sr(ecp-28), Ba(ecp-46): M. Kaupp, P. V. Schleyer, H. Stoll and H. Preuss, J. Chem. Phys., 1991, 94, 1360-1366.
La(ecp-46): M. Dolg, H. Stoll, A. Savin, H. Preuss, Theor. Chim. Acta, 1989, 75, 173-194.
Lu(ecp-28): X. Cao, M. Dolg, J. Chem. Phys., 2001, 115, 7348-7355.

ECP parameters for Ru [Def2-ECP] have been obtained from:
TURBOMOLE (7.0.2)

----- Orbital basis set information -----
Your calculation utilizes the basis: def2-QZVP
   F. Weigend and R. Ahlrichs, Phys. Chem. Chem. Phys. 7, 3297 (2005).

----- AuxJ basis set information -----
Your calculation utilizes the auxiliary basis: def2/J
   H-Rn: F. Weigend, Phys. Chem. Chem. Phys. 8, 1057 (2006).
   Fr-Lr: K. Eichkorn, F. Weigend, O. Treutler, R. Ahlrichs; Theor. Chem. Acc. 97, 119 (1997).

================================================================================
                                        WARNINGS
                       Please study these warnings very carefully!
================================================================================


================================================================================
                                       INPUT FILE
================================================================================
NAME = 15h_def2qzvp.inp
|  1> ! BP86 def2-QZVP VeryTightSCF defgrid3
|  2> 
|  3> *xyz 0 1
|  4>   Ru         -0.00925004775463     -0.25536936277321     -0.18825278681969
|  5>   P          -2.28746525779038     -0.03663875983905     -0.11703056887638
|  6>   P           2.27352104051140     -0.06830618284926     -0.08987424438066
|  7>   C          -2.95694403329638     -0.56589388803592      1.51166183203681
|  8>   C          -4.68588002631837     -2.65522342081126     -3.10800690267257
|  9>   C          -3.80429316837499     -3.22819478832069     -2.18599586412859
| 10>   C          -3.10436431259569     -2.41792058145074     -1.29607166149743
| 11>   C          -2.99847462219471      1.64290792078062     -0.29732141253688
| 12>   C          -2.23385390083417      2.64917097877968     -0.89478195778610
| 13>   C          -2.76830796604987      3.92698741816221     -1.07445013172761
| 14>   C          -4.06643234864214      4.20901696201014     -0.64889027413227
| 15>   C          -4.83176030962395      3.21044174182241     -0.04030731663076
| 16>   C          -4.29972833148420      1.93379203475753      0.13445813244788
| 17>   C           2.99491750875301      1.59111204001732     -0.38021386514532
| 18>   C          -2.21051644255673     -0.21407730749035      2.64586108236492
| 19>   C           2.37967658113588      2.43970612448855     -1.30719427688353
| 20>   C           2.92777172643227      3.69103260050782     -1.59053790210380
| 21>   C           4.08976402505571      4.10982886483225     -0.93960158536038
| 22>   C           4.70271791757583      3.27216720930878     -0.00582852741145
| 23>   C           4.15884700050561      2.01697745342086      0.27127570517234
| 24>   C           3.31976765096714     -1.14242351397956     -1.15247015611903
| 25>   C           2.99592077218013     -2.50551127759317     -1.21249805943498
| 26>   C           3.75318693304898     -3.38324175348832     -1.98496482711764
| 27>   C           4.83714731127259     -2.90417476363681     -2.72608274499744
| 28>   C           5.15764292152911     -1.54804022712270     -2.68341408715564
| 29>   C          -2.64432555630812     -0.57745835685807      3.92039352144551
| 30>   C           4.40548547649142     -0.67050322186508     -1.89707926270940
| 31>   C           2.89245257728965     -0.46936486279866      1.59483798518449
| 32>   C           2.20758734445452      0.10130465561008      2.67880710165029
| 33>   C           2.61228847035378     -0.15837970188818      3.98733524808428
| 34>   C           3.70296383619983     -0.99720472000655      4.22925016418195
| 35>   C           4.38740598136241     -1.56931158792676      3.15661374661631
| 36>   C           3.98586899012409     -1.30633116225817      1.84448154354112
| 37>   C          -3.82889292060837     -1.30062111529284      4.07551930087801
| 38>   C          -4.57603645685308     -1.65638367945022      2.95165076660308
| 39>   C          -4.14267454720824     -1.29182530235421      1.67508057706404
| 40>   C          -3.28771063935641     -1.02679901373114     -1.29745485201502
| 41>   C          -4.16794058720015     -0.46111044649408     -2.22429169263643
| 42>   C          -4.86115631793298     -1.27295527595040     -3.12773846958253
| 43>   H          -1.20991149009259      2.42159095646420     -1.19918772631452
| 44>   H          -2.16192721334001      4.70834085853446     -1.54165989492825
| 45>   H          -4.48288863246924      5.21164649636179     -0.78416457524854
| 46>   H          -5.84695372240125      3.42922560047627      0.30327393917855
| 47>   H          -4.90262492728677      1.15835429674455      0.61500041668560
| 48>   H          -2.40623162946576     -2.86943335648449     -0.58427857125151
| 49>   H          -3.65737821690662     -4.31201742786721     -2.16707479342193
| 50>   H          -5.23133392712212     -3.28901416320762     -3.81322464664498
| 51>   H          -5.54329988582764     -0.81658302232318     -3.85092763442358
| 52>   H          -4.31588612463561      0.62083858413486     -2.24935320858425
| 53>   H          -4.73263768617876     -1.57995437424440      0.80109696835359
| 54>   H          -1.28458599740284      0.35583855227449      2.51790014519603
| 55>   H          -2.05280865632817     -0.29745775090676      4.79687564548462
| 56>   H          -4.16896356970783     -1.58970132294633      5.07423354951906
| 57>   H          -5.50403264935004     -2.22394123709266      3.06760212173425
| 58>   H           4.64436625084629      1.36640076598571      1.00366645935336
| 59>   H           5.60938188448777      3.59803475873697      0.51221082985407
| 60>   H           4.51580729111323      5.09401220764028     -1.15581412249854
| 61>   H           2.43960374945311      4.34640010036442     -2.31770376201266
| 62>   H           1.45880981772429      2.11152052679666     -1.79532527345965
| 63>   H           2.14014692322358     -2.88028865666619     -0.64323717470634
| 64>   H           4.66921520912483      0.38914299861227     -1.87001242348478
| 65>   H           6.00065144030798     -1.16505166724214     -3.26586991272061
| 66>   H           3.49242154786639     -4.44512314954162     -2.01647299512800
| 67>   H           5.42813238343469     -3.58957667620333     -3.34054600566663
| 68>   H           4.53161980236671     -1.75729766541695      1.01207465358882
| 69>   H           1.35617610851651      0.75993782615411      2.48184588770295
| 70>   H           2.07256648010496      0.29531945964719      4.82375193652039
| 71>   H           4.01916421243715     -1.20498208662908      5.25565959014262
| 72>   H           5.24310874311027     -2.22582257597751      3.33959534953812
| 73>   H          -0.06889236630291     -1.89070629596966     -0.78406801540654
| 74>   H          -0.00404706649099     -1.35374399510523     -1.49081610496843
| 75>   H          -0.01446580762212      0.53784207698531     -1.52164479141234
| 76>   H           0.01480645255371      1.17573762767796      0.60021686202054
| 77> **                         ****END OF INPUT****
================================================================================

                       ****************************
                       * Single Point Calculation *
                       ****************************

---------------------------------
CARTESIAN COORDINATES (ANGSTROEM)
---------------------------------
  Ru    -0.009250   -0.255369   -0.188253
  P     -2.287465   -0.036639   -0.117031
  P      2.273521   -0.068306   -0.089874
  C     -2.956944   -0.565894    1.511662
  C     -4.685880   -2.655223   -3.108007
  C     -3.804293   -3.228195   -2.185996
  C     -3.104364   -2.417921   -1.296072
  C     -2.998475    1.642908   -0.297321
  C     -2.233854    2.649171   -0.894782
  C     -2.768308    3.926987   -1.074450
  C     -4.066432    4.209017   -0.648890
  C     -4.831760    3.210442   -0.040307
  C     -4.299728    1.933792    0.134458
  C      2.994918    1.591112   -0.380214
  C     -2.210516   -0.214077    2.645861
  C      2.379677    2.439706   -1.307194
  C      2.927772    3.691033   -1.590538
  C      4.089764    4.109829   -0.939602
  C      4.702718    3.272167   -0.005829
  C      4.158847    2.016977    0.271276
  C      3.319768   -1.142424   -1.152470
  C      2.995921   -2.505511   -1.212498
  C      3.753187   -3.383242   -1.984965
  C      4.837147   -2.904175   -2.726083
  C      5.157643   -1.548040   -2.683414
  C     -2.644326   -0.577458    3.920394
  C      4.405485   -0.670503   -1.897079
  C      2.892453   -0.469365    1.594838
  C      2.207587    0.101305    2.678807
  C      2.612288   -0.158380    3.987335
  C      3.702964   -0.997205    4.229250
  C      4.387406   -1.569312    3.156614
  C      3.985869   -1.306331    1.844482
  C     -3.828893   -1.300621    4.075519
  C     -4.576036   -1.656384    2.951651
  C     -4.142675   -1.291825    1.675081
  C     -3.287711   -1.026799   -1.297455
  C     -4.167941   -0.461110   -2.224292
  C     -4.861156   -1.272955   -3.127738
  H     -1.209911    2.421591   -1.199188
  H     -2.161927    4.708341   -1.541660
  H     -4.482889    5.211646   -0.784165
  H     -5.846954    3.429226    0.303274
  H     -4.902625    1.158354    0.615000
  H     -2.406232   -2.869433   -0.584279
  H     -3.657378   -4.312017   -2.167075
  H     -5.231334   -3.289014   -3.813225
  H     -5.543300   -0.816583   -3.850928
  H     -4.315886    0.620839   -2.249353
  H     -4.732638   -1.579954    0.801097
  H     -1.284586    0.355839    2.517900
  H     -2.052809   -0.297458    4.796876
  H     -4.168964   -1.589701    5.074234
  H     -5.504033   -2.223941    3.067602
  H      4.644366    1.366401    1.003666
  H      5.609382    3.598035    0.512211
  H      4.515807    5.094012   -1.155814
  H      2.439604    4.346400   -2.317704
  H      1.458810    2.111521   -1.795325
  H      2.140147   -2.880289   -0.643237
  H      4.669215    0.389143   -1.870012
  H      6.000651   -1.165052   -3.265870
  H      3.492422   -4.445123   -2.016473
  H      5.428132   -3.589577   -3.340546
  H      4.531620   -1.757298    1.012075
  H      1.356176    0.759938    2.481846
  H      2.072566    0.295319    4.823752
  H      4.019164   -1.204982    5.255660
  H      5.243109   -2.225823    3.339595
  H     -0.068892   -1.890706   -0.784068
  H     -0.004047   -1.353744   -1.490816
  H     -0.014466    0.537842   -1.521645
  H      0.014806    1.175738    0.600217

----------------------------
CARTESIAN COORDINATES (A.U.)
----------------------------
  NO LB      ZA    FRAG     MASS         X           Y           Z
   0 Ru   16.0000*   0   101.070   -0.017480   -0.482578   -0.355746
   1 P    15.0000    0    30.974   -4.322683   -0.069237   -0.221156
   2 P    15.0000    0    30.974    4.296332   -0.129080   -0.169838
   3 C     6.0000    0    12.011   -5.587814   -1.069384    2.856627
   4 C     6.0000    0    12.011   -8.855030   -5.017645   -5.873282
   5 C     6.0000    0    12.011   -7.189072   -6.100404   -4.130934
   6 C     6.0000    0    12.011   -5.866398   -4.569208   -2.449220
   7 C     6.0000    0    12.011   -5.666296    3.104646   -0.561856
   8 C     6.0000    0    12.011   -4.221372    5.006208   -1.690893
   9 C     6.0000    0    12.011   -5.231344    7.420931   -2.030416
  10 C     6.0000    0    12.011   -7.684443    7.953889   -1.226225
  11 C     6.0000    0    12.011   -9.130704    6.066856   -0.076170
  12 C     6.0000    0    12.011   -8.125309    3.654337    0.254089
  13 C     6.0000    0    12.011    5.659574    3.006766   -0.718500
  14 C     6.0000    0    12.011   -4.177271   -0.404547    4.999953
  15 C     6.0000    0    12.011    4.496937    4.610376   -2.470239
  16 C     6.0000    0    12.011    5.532687    6.975041   -3.005681
  17 C     6.0000    0    12.011    7.728534    7.766451   -1.775590
  18 C     6.0000    0    12.011    8.886849    6.183500   -0.011014
  19 C     6.0000    0    12.011    7.859082    3.811535    0.512637
  20 C     6.0000    0    12.011    6.273452   -2.158868   -2.177853
  21 C     6.0000    0    12.011    5.661470   -4.734730   -2.291289
  22 C     6.0000    0    12.011    7.092495   -6.393400   -3.751040
  23 C     6.0000    0    12.011    9.140884   -5.488095   -5.151550
  24 C     6.0000    0    12.011    9.746533   -2.925372   -5.070918
  25 C     6.0000    0    12.011   -4.997051   -1.091238    7.408470
  26 C     6.0000    0    12.011    8.325161   -1.267067   -3.584960
  27 C     6.0000    0    12.011    5.465943   -0.886971    3.013807
  28 C     6.0000    0    12.011    4.171735    0.191438    5.062212
  29 C     6.0000    0    12.011    4.936510   -0.299294    7.534972
  30 C     6.0000    0    12.011    6.997588   -1.884444    7.992125
  31 C     6.0000    0    12.011    8.290996   -2.965569    5.965135
  32 C     6.0000    0    12.011    7.532201   -2.468608    3.485565
  33 C     6.0000    0    12.011   -7.235559   -2.457818    7.701615
  34 C     6.0000    0    12.011   -8.647456   -3.130112    5.577812
  35 C     6.0000    0    12.011   -7.828520   -2.441196    3.165444
  36 C     6.0000    0    12.011   -6.212873   -1.940369   -2.451834
  37 C     6.0000    0    12.011   -7.876266   -0.871372   -4.203302
  38 C     6.0000    0    12.011   -9.186254   -2.405537   -5.910569
  39 H     1.0000    0     1.008   -2.286401    4.576144   -2.266136
  40 H     1.0000    0     1.008   -4.085450    8.897475   -2.913315
  41 H     1.0000    0     1.008   -8.471432    9.848585   -1.481856
  42 H     1.0000    0     1.008  -11.049141    6.480297    0.573105
  43 H     1.0000    0     1.008   -9.264618    2.188972    1.162182
  44 H     1.0000    0     1.008   -4.547119   -5.422443   -1.104126
  45 H     1.0000    0     1.008   -6.911443   -8.148532   -4.095178
  46 H     1.0000    0     1.008   -9.885788   -6.215336   -7.205950
  47 H     1.0000    0     1.008  -10.475319   -1.543118   -7.277199
  48 H     1.0000    0     1.008   -8.155843    1.173215   -4.250662
  49 H     1.0000    0     1.008   -8.943389   -2.985681    1.513854
  50 H     1.0000    0     1.008   -2.427516    0.672437    4.758142
  51 H     1.0000    0     1.008   -3.879246   -0.562114    9.064781
  52 H     1.0000    0     1.008   -7.878199   -3.004100    9.588912
  53 H     1.0000    0     1.008  -10.401114   -4.202640    5.796928
  54 H     1.0000    0     1.008    8.776580    2.582123    1.896655
  55 H     1.0000    0     1.008   10.600196    6.799300    0.967938
  56 H     1.0000    0     1.008    8.533639    9.626288   -2.184172
  57 H     1.0000    0     1.008    4.610183    8.213506   -4.379825
  58 H     1.0000    0     1.008    2.756751    3.990196   -3.392673
  59 H     1.0000    0     1.008    4.044292   -5.442957   -1.215542
  60 H     1.0000    0     1.008    8.823538    0.735374   -3.533811
  61 H     1.0000    0     1.008   11.339588   -2.201629   -6.171600
  62 H     1.0000    0     1.008    6.599720   -8.400065   -3.810582
  63 H     1.0000    0     1.008   10.257684   -6.783317   -6.312717
  64 H     1.0000    0     1.008    8.563520   -3.320811    1.912544
  65 H     1.0000    0     1.008    2.562801    1.436074    4.690009
  66 H     1.0000    0     1.008    3.916583    0.558073    9.115570
  67 H     1.0000    0     1.008    7.595120   -2.277086    9.931757
  68 H     1.0000    0     1.008    9.908040   -4.206195    6.310921
  69 H     1.0000    0     1.008   -0.130188   -3.572917   -1.481674
  70 H     1.0000    0     1.008   -0.007648   -2.558205   -2.817234
  71 H     1.0000    0     1.008   -0.027336    1.016374   -2.875492
  72 H     1.0000    0     1.008    0.027980    2.221822    1.134245
* core charge reduced due to ECP

--------------------------------
INTERNAL COORDINATES (ANGSTROEM)
--------------------------------
 Ru     0   0   0     0.000000000000     0.00000000     0.00000000
 P      1   0   0     2.289799166789     0.00000000     0.00000000
 P      1   2   0     2.292534582579   168.98421915     0.00000000
 C      2   1   3     1.838736457018   111.24219099   272.44986198
 C      2   1   3     4.642770558395   116.10790885   155.47541185
 C      5   2   1     1.398426233765    58.71306618    57.05574078
 C      6   5   2     1.392267854940   119.99361705     0.37037397
 C      2   1   3     1.832734611710   118.06462740    29.97699379
 C      8   2   1     1.397916053473   119.30840243    20.85873310
 C      9   8   2     1.396687743667   120.28108353   178.30603337
 C     10   9   8     1.394908157794   120.12180598     0.48175609
 C     11  10   9     1.397588127595   119.86767156     0.07825453
 C     12  11  10     1.394071541387   119.99464072   359.68824182
 C      3   1   2     1.832588005570   117.32647106   325.86722496
 C      4   2   1     1.402617907346   116.76292633    39.35299026
 C     14   3   1     1.399259090719   118.75244986   324.94466271
 C     16  14   3     1.395173769764   120.38052826   182.34025332
 C     17  16  14     1.396185697365   120.08609244   359.40262996
 C     18  17  16     1.396181093999   119.81692472     0.09150337
 C     19  18  17     1.395737673575   120.08347614     0.30911106
 C      3   1   2     1.837789455451   119.62820700   201.09075804
 C     21   3   1     1.402315371587   117.47688465   314.36089868
 C     22  21   3     1.393042617398   120.70740154   180.72890075
 C     23  22  21     1.397759296348   119.97535711   359.06887165
 C     24  23  22     1.394144516068   119.69904182     0.24497982
 C     15   4   2     1.394513919788   120.54057553   180.11178981
 C     25  24  23     1.397903599630   120.27559947     0.41544504
 C      3   1   2     1.839070310898   110.89331798    82.63733012
 C     28   3   1     1.403457563248   117.04096496   314.35337873
 C     29  28   3     1.394082091142   120.50094560   179.75955819
 C     30  29  28     1.397040798014   120.06745265   359.68827635
 C     31  30  29     1.395104369818   119.74255893     0.22739937
 C     32  31  30     1.397169130050   120.25695676     0.00000000
 C     26  15   4     1.396505718999   120.02205960     0.16919968
 C     34  26  15     1.395661473331   119.77792818   359.93972569
 C     35  34  26     1.396544594298   120.22651151     0.00000000
 C      7   6   5     1.403152523758   120.70857071     0.99347970
 C     37   7   6     1.397796424848   118.95802110   358.85114590
 C      5   2   1     1.393476349793    60.96288936   236.52326625
 H      9   8   2     1.092205840941   118.81050611   357.18604898
 H     10   9   8     1.093844494829   119.75807847   179.91424078
 H     11  10   9     1.094075388644   120.11922418   179.62919479
 H     12  11  10     1.093861107041   120.13848645   179.44588458
 H     13  12  11     1.093484740500   119.60956647   179.75641107
 H      7   6   5     1.094487292112   119.75396628   180.74305268
 H      6   5   2     1.093898315144   120.13394668   180.82628679
 H      5   2   1     1.093865955894   178.64521616    25.17121406
 H     39   5   2     1.093891241963   120.10883993   179.01856549
 H     38  37   7     1.092304749833   120.09062121   180.70628590
 H     36  35  34     1.093124977167   119.64073199   179.68493278
 H     15   4   2     1.094771792620   119.08813258     0.48915274
 H     26  15   4     1.093852593385   119.82909733   179.96707789
 H     34  26  15     1.093912959643   120.12944969   179.77967112
 H     35  34  26     1.093957600313   120.06722122   179.92306293
 H     20  19  18     1.093332147838   119.67465763   179.99590860
 H     19  18  17     1.093889383961   120.12456854   180.42416024
 H     18  17  16     1.094019002591   120.11978531   180.46106708
 H     17  16  14     1.093885150020   119.80399336   179.93061122
 H     16  14   3     1.092690831071   118.96971650     3.05072490
 H     22  21   3     1.094013217153   119.43009141     0.57792857
 H     27  25  24     1.092307693936   119.53856869   179.80208848
 H     25  24  23     1.093891397017   120.09507779   180.39193854
 H     23  22  21     1.093884568885   119.86992044   179.58280324
 H     24  23  22     1.093894069817   120.13597764   180.54411890
 H     33  32  31     1.092756133122   119.61554591   179.79266486
 H     29  28   3     1.094299988953   119.03803789   359.25543562
 H     30  29  28     1.093954127297   119.81359863   179.77627591
 H     31  30  29     1.093924321749   120.14452831   180.24130924
 H     32  31  30     1.093945227560   120.08313103   179.91144295
 H      1   2   8     1.741516545386    93.79961859   207.29775076
 H     70   1   2     0.889958587552    72.70015975    93.56676227
 H      1   2   8     1.551497931106    88.54164949   307.94249797
 H      1   2   8     1.634114537132    85.18044911    36.16620798

---------------------------
INTERNAL COORDINATES (A.U.)
---------------------------
 Ru     0   0   0     0.000000000000     0.00000000     0.00000000
 P      1   0   0     4.327093326912     0.00000000     0.00000000
 P      1   2   0     4.332262513617   168.98421915     0.00000000
 C      2   1   3     3.474708336221   111.24219099   272.44986198
 C      2   1   3     8.773564858000   116.10790885   155.47541185
 C      5   2   1     2.642642600306    58.71306618    57.05574078
 C      6   5   2     2.631004950899   119.99361705     0.37037397
 C      2   1   3     3.463366492290   118.06462740    29.97699379
 C      8   2   1     2.641678499276   119.30840243    20.85873310
 C      9   8   2     2.639357330135   120.28108353   178.30603337
 C     10   9   8     2.635994400203   120.12180598     0.48175609
 C     11  10   9     2.641058809175   119.86767156     0.07825453
 C     12  11  10     2.634413424314   119.99464072   359.68824182
 C      3   1   2     3.463089446836   117.32647106   325.86722496
 C      4   2   1     2.650563715419   116.76292633    39.35299026
 C     14   3   1     2.644216471859   118.75244986   324.94466271
 C     16  14   3     2.636496334084   120.38052826   182.34025332
 C     17  16  14     2.638408600119   120.08609244   359.40262996
 C     18  17  16     2.638399901017   119.81692472     0.09150337
 C     19  18  17     2.637561957853   120.08347614     0.30911106
 C      3   1   2     3.472918762611   119.62820700   201.09075804
 C     21   3   1     2.649992005688   117.47688465   314.36089868
 C     22  21   3     2.632469039763   120.70740154   180.72890075
 C     23  22  21     2.641382271240   119.97535711   359.06887165
 C     24  23  22     2.634551326476   119.69904182     0.24497982
 C     15   4   2     2.635249398340   120.54057553   180.11178981
 C     25  24  23     2.641654964924   120.27559947     0.41544504
 C      3   1   2     3.475339228623   110.89331798    82.63733012
 C     28   3   1     2.652150435120   117.04096496   314.35337873
 C     29  28   3     2.634433360463   120.50094560   179.75955819
 C     30  29  28     2.640024506161   120.06745265   359.68827635
 C     31  30  29     2.636365187192   119.74255893     0.22739937
 C     32  31  30     2.640267018563   120.25695676     0.00000000
 C     26  15   4     2.639013353363   120.02205960     0.16919968
 C     34  26  15     2.637417960261   119.77792818   359.93972569
 C     35  34  26     2.639086817030   120.22651151     0.00000000
 C      7   6   5     2.651573994022   120.70857071     0.99347970
 C     37   7   6     2.641452433936   118.95802110   358.85114590
 C      5   2   1     2.633288675205    60.96288936   236.52326625
 H      9   8   2     2.063969921248   118.81050611   357.18604898
 H     10   9   8     2.067066528325   119.75807847   179.91424078
 H     11  10   9     2.067502854400   120.11922418   179.62919479
 H     12  11  10     2.067097920856   120.13848645   179.44588458
 H     13  12  11     2.066386691166   119.60956647   179.75641107
 H      7   6   5     2.068281239149   119.75396628   180.74305268
 H      6   5   2     2.067168233980   120.13394668   180.82628679
 H      5   2   1     2.067107083859   178.64521616    25.17121406
 H     39   5   2     2.067154867606   120.10883993   179.01856549
 H     38  37   7     2.064156831966   120.09062121   180.70628590
 H     36  35  34     2.065706836995   119.64073199   179.68493278
 H     15   4   2     2.068818867193   119.08813258     0.48915274
 H     26  15   4     2.067081832377   119.82909733   179.96707789
 H     34  26  15     2.067195908072   120.12944969   179.77967112
 H     35  34  26     2.067280266713   120.06722122   179.92306293
 H     20  19  18     2.066098332825   119.67465763   179.99590860
 H     19  18  17     2.067151356490   120.12456854   180.42416024
 H     18  17  16     2.067396300202   120.11978531   180.46106708
 H     17  16  14     2.067143355500   119.80399336   179.93061122
 H     16  14   3     2.064886419771   118.96971650     3.05072490
 H     22  21   3     2.067385367309   119.43009141     0.57792857
 H     27  25  24     2.064162395515   119.53856869   179.80208848
 H     25  24  23     2.067155160615   120.09507779   180.39193854
 H     23  22  21     2.067142257315   119.86992044   179.58280324
 H     24  23  22     2.067160211474   120.13597764   180.54411890
 H     33  32  31     2.065009822763   119.61554591   179.79266486
 H     29  28   3     2.067927287474   119.03803789   359.25543562
 H     30  29  28     2.067273703664   119.81359863   179.77627591
 H     31  30  29     2.067217379341   120.14452831   180.24130924
 H     32  31  30     2.067256885599   120.08313103   179.91144295
 H      1   2   8     3.290989328473    93.79961859   207.29775076
 H     70   1   2     1.681778001004    72.70015975    93.56676227
 H      1   2   8     2.931906187136    88.54164949   307.94249797
 H      1   2   8     3.088028946640    85.18044911    36.16620798

---------------------
BASIS SET INFORMATION
---------------------
There are 4 groups of distinct atoms

 Group   1 Type Ru  : 9s8p7d3f1g contracted to 7s5p4d3f1g pattern {3111111/41111/4111/111/1}
 Group   2 Type P   : 20s14p4d2f1g contracted to 9s6p4d2f1g pattern {1031111111/821111/1111/11/1}
 Group   3 Type C   : 15s8p3d2f1g contracted to 7s4p3d2f1g pattern {8211111/5111/111/11/1}
 Group   4 Type H   : 7s3p2d1f contracted to 4s3p2d1f pattern {4111/111/11/1}

Atom   0Ru   basis set group =>   1
Atom   1P    basis set group =>   2
Atom   2P    basis set group =>   2
Atom   3C    basis set group =>   3
Atom   4C    basis set group =>   3
Atom   5C    basis set group =>   3
Atom   6C    basis set group =>   3
Atom   7C    basis set group =>   3
Atom   8C    basis set group =>   3
Atom   9C    basis set group =>   3
Atom  10C    basis set group =>   3
Atom  11C    basis set group =>   3
Atom  12C    basis set group =>   3
Atom  13C    basis set group =>   3
Atom  14C    basis set group =>   3
Atom  15C    basis set group =>   3
Atom  16C    basis set group =>   3
Atom  17C    basis set group =>   3
Atom  18C    basis set group =>   3
Atom  19C    basis set group =>   3
Atom  20C    basis set group =>   3
Atom  21C    basis set group =>   3
Atom  22C    basis set group =>   3
Atom  23C    basis set group =>   3
Atom  24C    basis set group =>   3
Atom  25C    basis set group =>   3
Atom  26C    basis set group =>   3
Atom  27C    basis set group =>   3
Atom  28C    basis set group =>   3
Atom  29C    basis set group =>   3
Atom  30C    basis set group =>   3
Atom  31C    basis set group =>   3
Atom  32C    basis set group =>   3
Atom  33C    basis set group =>   3
Atom  34C    basis set group =>   3
Atom  35C    basis set group =>   3
Atom  36C    basis set group =>   3
Atom  37C    basis set group =>   3
Atom  38C    basis set group =>   3
Atom  39H    basis set group =>   4
Atom  40H    basis set group =>   4
Atom  41H    basis set group =>   4
Atom  42H    basis set group =>   4
Atom  43H    basis set group =>   4
Atom  44H    basis set group =>   4
Atom  45H    basis set group =>   4
Atom  46H    basis set group =>   4
Atom  47H    basis set group =>   4
Atom  48H    basis set group =>   4
Atom  49H    basis set group =>   4
Atom  50H    basis set group =>   4
Atom  51H    basis set group =>   4
Atom  52H    basis set group =>   4
Atom  53H    basis set group =>   4
Atom  54H    basis set group =>   4
Atom  55H    basis set group =>   4
Atom  56H    basis set group =>   4
Atom  57H    basis set group =>   4
Atom  58H    basis set group =>   4
Atom  59H    basis set group =>   4
Atom  60H    basis set group =>   4
Atom  61H    basis set group =>   4
Atom  62H    basis set group =>   4
Atom  63H    basis set group =>   4
Atom  64H    basis set group =>   4
Atom  65H    basis set group =>   4
Atom  66H    basis set group =>   4
Atom  67H    basis set group =>   4
Atom  68H    basis set group =>   4
Atom  69H    basis set group =>   4
Atom  70H    basis set group =>   4
Atom  71H    basis set group =>   4
Atom  72H    basis set group =>   4
---------------------------------
AUXILIARY/J BASIS SET INFORMATION
---------------------------------
There are 4 groups of distinct atoms

 Group   1 Type Ru  : 11s5p5d3f3g contracted to 8s5p5d2f3g pattern {41111111/11111/11111/21/111}
 Group   2 Type P   : 14s5p5d2f1g contracted to 8s4p3d1f1g pattern {71111111/2111/311/2/1}
 Group   3 Type C   : 12s5p4d2f1g contracted to 6s4p3d1f1g pattern {711111/2111/211/2/1}
 Group   4 Type H   : 5s2p1d contracted to 3s1p1d pattern {311/2/1}

Atom   0Ru   basis set group =>   1
Atom   1P    basis set group =>   2
Atom   2P    basis set group =>   2
Atom   3C    basis set group =>   3
Atom   4C    basis set group =>   3
Atom   5C    basis set group =>   3
Atom   6C    basis set group =>   3
Atom   7C    basis set group =>   3
Atom   8C    basis set group =>   3
Atom   9C    basis set group =>   3
Atom  10C    basis set group =>   3
Atom  11C    basis set group =>   3
Atom  12C    basis set group =>   3
Atom  13C    basis set group =>   3
Atom  14C    basis set group =>   3
Atom  15C    basis set group =>   3
Atom  16C    basis set group =>   3
Atom  17C    basis set group =>   3
Atom  18C    basis set group =>   3
Atom  19C    basis set group =>   3
Atom  20C    basis set group =>   3
Atom  21C    basis set group =>   3
Atom  22C    basis set group =>   3
Atom  23C    basis set group =>   3
Atom  24C    basis set group =>   3
Atom  25C    basis set group =>   3
Atom  26C    basis set group =>   3
Atom  27C    basis set group =>   3
Atom  28C    basis set group =>   3
Atom  29C    basis set group =>   3
Atom  30C    basis set group =>   3
Atom  31C    basis set group =>   3
Atom  32C    basis set group =>   3
Atom  33C    basis set group =>   3
Atom  34C    basis set group =>   3
Atom  35C    basis set group =>   3
Atom  36C    basis set group =>   3
Atom  37C    basis set group =>   3
Atom  38C    basis set group =>   3
Atom  39H    basis set group =>   4
Atom  40H    basis set group =>   4
Atom  41H    basis set group =>   4
Atom  42H    basis set group =>   4
Atom  43H    basis set group =>   4
Atom  44H    basis set group =>   4
Atom  45H    basis set group =>   4
Atom  46H    basis set group =>   4
Atom  47H    basis set group =>   4
Atom  48H    basis set group =>   4
Atom  49H    basis set group =>   4
Atom  50H    basis set group =>   4
Atom  51H    basis set group =>   4
Atom  52H    basis set group =>   4
Atom  53H    basis set group =>   4
Atom  54H    basis set group =>   4
Atom  55H    basis set group =>   4
Atom  56H    basis set group =>   4
Atom  57H    basis set group =>   4
Atom  58H    basis set group =>   4
Atom  59H    basis set group =>   4
Atom  60H    basis set group =>   4
Atom  61H    basis set group =>   4
Atom  62H    basis set group =>   4
Atom  63H    basis set group =>   4
Atom  64H    basis set group =>   4
Atom  65H    basis set group =>   4
Atom  66H    basis set group =>   4
Atom  67H    basis set group =>   4
Atom  68H    basis set group =>   4
Atom  69H    basis set group =>   4
Atom  70H    basis set group =>   4
Atom  71H    basis set group =>   4
Atom  72H    basis set group =>   4
-------------------------
ECP PARAMETER INFORMATION
-------------------------

 Group 1, Type Ru ECP Def2-ECP (replacing 28 core electrons, lmax=3)

Atom   0Ru   ECP group =>   1

------------------------------------------------------------------------------
                             ORCA STARTUP CALCULATIONS
                           -- RI-GTO INTEGRALS CHOSEN --
------------------------------------------------------------------------------
------------------------------------------------------------------------------
                   ___                                                        
                  /   \      - P O W E R E D   B Y -                         
                 /     \                                                     
                 |  |  |   _    _      __       _____    __    __             
                 |  |  |  | |  | |    /  \     |  _  \  |  |  /  |          
                  \  \/   | |  | |   /    \    | | | |  |  | /  /          
                 / \  \   | |__| |  /  /\  \   | |_| |  |  |/  /          
                |  |  |   |  __  | /  /__\  \  |    /   |      \           
                |  |  |   | |  | | |   __   |  |    \   |  |\   \          
                \     /   | |  | | |  |  |  |  | |\  \  |  | \   \       
                 \___/    |_|  |_| |__|  |__|  |_| \__\ |__|  \__/        
                                                                              
                      - O R C A' S   B I G   F R I E N D -                    
                                      &                                       
                       - I N T E G R A L  F E E D E R -                       
                                                                              
 v1 FN, 2020, v2 2021, v3 2022-2024                                           
------------------------------------------------------------------------------


----------------------
SHARK INTEGRAL PACKAGE
----------------------

Number of atoms                             ...     73
Number of basis functions                   ...   3284
Number of shells                            ...   1016
Maximum angular momentum                    ...      4
Integral batch strategy                     ... SHARK/LIBINT Hybrid
RI-J (if used) integral strategy            ... SPLIT-RIJ (Revised 2003 algorithm where possible)
Printlevel                                  ...      1
Contraction scheme used                     ... SEGMENTED contraction
Prescreening option                         ... SCHWARTZ
   Thresh                                   ... 1.000e-12
   Tcut                                     ... 1.000e-14
   Tpresel                                  ... 1.000e-14 
Coulomb Range Separation                    ... NOT USED
Exchange Range Separation                   ... NOT USED
Multipole approximations                    ... NOT USED
Finite Nucleus Model                        ... NOT USED
CABS basis                                  ... NOT available
Auxiliary Coulomb fitting basis             ... AVAILABLE
   # of basis functions in Aux-J            ...   2329
   # of shells in Aux-J                     ...    767
   Maximum angular momentum in Aux-J        ...      4
Auxiliary J/K fitting basis                 ... NOT available
Auxiliary Correlation fitting basis         ... NOT available
Auxiliary 'external' fitting basis          ... NOT available

Checking pre-screening integrals            ... done (  0.0 sec) Dimension = 1016
   => SHARK Basis and OBASIS are compatible. Storing Pre-screening
Shell pair information
Shell pair cut-off parameter TPreSel        ...   1.0e-14
Total number of shell pairs                 ...    516636
Shell pairs after pre-screening             ...    261487
Total number of primitive shell pairs       ...   1276183
Primitive shell pairs kept                  ...    433153
          la=0 lb=0:  42627 shell pairs
          la=1 lb=0:  61667 shell pairs
          la=1 lb=1:  21969 shell pairs
          la=2 lb=0:  36501 shell pairs
          la=2 lb=1:  27050 shell pairs
          la=2 lb=2:   7891 shell pairs
          la=3 lb=0:  20314 shell pairs
          la=3 lb=1:  15362 shell pairs
          la=3 lb=2:   8610 shell pairs
          la=3 lb=3:   2346 shell pairs
          la=4 lb=0:   7061 shell pairs
          la=4 lb=1:   5290 shell pairs
          la=4 lb=2:   2967 shell pairs
          la=4 lb=3:   1549 shell pairs
          la=4 lb=4:    283 shell pairs

Checking whether 4 symmetric matrices of dimension 3284 fit in memory
:Max Core in MB      =   4096.00
 MB in use           =    313.93
 MB left             =   3782.07
 MB needed           =    164.61
 Data fit in memory  = YES
Calculating RI/J V-Matrix + Cholesky decomp.... done (  0.2 sec)
Calculating Nuclear repulsion               ... done (  0.0 sec) ENN=   4820.547114648989 Eh

Diagonalization of the overlap matrix:
Smallest eigenvalue                        ... 2.783e-06
Time for diagonalization                   ...    3.385 sec
Threshold for overlap eigenvalues          ... 1.000e-07
Number of eigenvalues below threshold      ... 0
Time for construction of square roots      ...    1.628 sec
Total time needed                          ...    5.027 sec

-------------------
DFT GRID GENERATION
-------------------

General Integration Accuracy     IntAcc      ... 4.959
Radial Grid Type                 RadialGrid  ... OptM3 with GC (2021)
Angular Grid (max. ang.)         AngularGrid ... 6 (Lebedev-590)
Angular grid pruning method      GridPruning ... 4 (adaptive)
Weight generation scheme         WeightScheme... mBecke (2022)
Basis function cutoff            BFCut       ... 1.0000e-12
Integration weight cutoff        WCut        ... 1.0000e-14
Partially contracted basis set               ... off
Rotationally invariant grid construction     ... off
Angular grids for H and He will be reduced by one unit
Diffuse basis detected: some atoms will have their outermost
                        angular grid increased by 1.

Total number of grid points                  ...   858551
Total number of batches                      ...    13451
Average number of points per batch           ...       63
Average number of grid points per atom       ...    11761
Grids setup in  18.3 sec
Initializing property integral containers    ... done (  0.0 sec)

SHARK setup successfully completed in  40.1 seconds

Maximum memory used throughout the entire STARTUP-calculation: 1394.6 MB
-------------------------------------------------------------------------------
                                 ORCA GUESS
                   Start orbitals & Density for SCF / CASSCF
-------------------------------------------------------------------------------

------------
SCF SETTINGS
------------
Hamiltonian:
 Density Functional     Method          .... DFT(GTOs)
 Exchange Functional    Exchange        .... B88
   X-Alpha parameter    XAlpha          ....  0.666667
   Becke's b parameter  XBeta           ....  0.004200
 Correlation Functional Correlation     .... P86
 LDA part of GGA corr.  LDAOpt          .... PW91-LDA
 Gradients option       PostSCFGGA      .... off
   NL short-range parameter             ....  4.400000
 RI-approximation to the Coulomb term is turned on
   Number of AuxJ basis functions       .... 2329


General Settings:
 Integral files         IntName         .... 15h_def2qzvp
 Hartree-Fock type      HFTyp           .... RHF
 Total Charge           Charge          ....    0
 Multiplicity           Mult            ....    1
 Number of Electrons    NEL             ....  296
 Basis Dimension        Dim             .... 3284
 Nuclear Repulsion      ENuc            ....   4820.5471146490 Eh

Convergence Acceleration:
 AO-DIIS                CNVDIIS         .... on
   Start iteration      DIISMaxIt       ....    12
   Startup error        DIISStart       ....  0.200000
   # of expansion vecs  DIISMaxEq       ....     5
   Bias factor          DIISBfac        ....   1.050
   Max. coefficient     DIISMaxC        ....  10.000
 MO-DIIS                CNVKDIIS        .... off
 Trust-Rad. Augm. Hess. CNVTRAH         .... auto
   Auto Start mean grad. ratio tolernc. ....  1.125000
   Auto Start start iteration           ....    50
   Auto Start num. interpolation iter.  ....    10
   Max. Number of Micro iterations      ....    24
   Max. Number of Macro iterations      .... Maxiter - #DIIS iter
   Number of Davidson start vectors     ....     2
   Converg. threshold    (grad. norm)   ....   2.000e-06
   Grad. Scal. Fac. for Micro threshold ....   0.100
   Minimum threshold for Micro iter.    ....   1.000e-02
   NR start threshold (gradient norm)   ....   1.000e-04
   Initial trust radius                 ....   0.400
   Minimum AH scaling param. (alpha)    ....   1.000
   Maximum AH scaling param. (alpha)    .... 1000.000
   Quad. conv. algorithm                .... NR
   White noise on init. David. guess    .... on
   Maximum white noise                  ....   0.010
   Pseudo random numbers                .... off
   Inactive MOs                         .... canonical
   Orbital update algorithm             .... Taylor
   Preconditioner                       .... Diag
   Full preconditioner red. dimension   ....   250
 SOSCF                 CNVSOSCF           .... on
   Start iteration     SOSCFMaxIt         ....   150
   Startup grad/error  SOSCFStart         ....  0.003300
   Hessian update      SOSCFHessUp        .... L-BFGS
   Autom. constraints  SOSCFAutoConstrain .... off
 Level Shifting         CNVShift        .... on
   Level shift para.    LevelShift      ....    0.2500
   Turn off err/grad.   ShiftErr        ....    0.0010
 Zerner damping         CNVZerner       .... off
 Static damping         CNVDamp         .... on
   Fraction old density DampFac         ....    0.7000
   Max. Damping (<1)    DampMax         ....    0.9800
   Min. Damping (>=0)   DampMin         ....    0.0000
   Turn off err/grad.   DampErr         ....    0.1000

SCF Procedure:
 Maximum # iterations   MaxIter         ....   125
 SCF integral mode      SCFMode         .... Direct
   Integral package                     .... SHARK and LIBINT hybrid scheme
 Reset frequency        DirectResetFreq ....    20
 Integral Threshold     Thresh          ....  1.000e-12 Eh
 Primitive CutOff       TCut            ....  1.000e-14 Eh

Convergence Tolerance:
 Convergence Check Mode ConvCheckMode   .... Total+1el-Energy
 Convergence forced     ConvForced      .... 0
 Energy Change          TolE            ....  1.000e-09 Eh
 1-El. energy change                    ....  1.000e-06 Eh
 Orbital Gradient       TolG            ....  2.000e-06
 Orbital Rotation angle TolX            ....  2.000e-06
 DIIS Error             TolErr          ....  1.000e-08

------------------------------
INITIAL GUESS: MODEL POTENTIAL
------------------------------
Loading Hartree-Fock densities                     ... done
Atomic calculation to generate a density for atom 0 (Ru with ECP)
  Multiplicity assumed   :    5
  Atomic configuration   : 1s2 2s2 2p6 3s2 3p6 4s2 3d10 4p6 5s2 4d6 
  Number of open shells  : 1
  Command: /cluster/projects/nn14654k/ylvaos/orca_6_1_1_linux_x86-64_shared_openmpi418/orca 15h_def2qzvp_atom44.inp "" > 15h_def2qzvp_atom44.out
Returned from the atomic calculation with res=0
Calculating cut-offs                               ... done
Initializing the effective Hamiltonian             ... done
Setting up the integral package (SHARK)            ... done
Starting the Coulomb interaction                   ... done (  26.8 sec)
Making the grid                                    ... done (   2.1 sec)
Mapping shells                                     ... done
Starting the XC term evaluation                    ... done (  13.1 sec)
  promolecular density results
     # of electrons  =    323.975169486
     EX              =   -369.811887591
     EC              =    -12.996462437
     EX+EC           =   -382.808350028
Transforming the Hamiltonian                       ... done (   1.6 sec)
Diagonalizing the Hamiltonian                      ... done (   3.1 sec)
Back transforming the eigenvectors                 ... done (   0.9 sec)
Now organizing SCF variables                       ... done
                      ------------------
                      INITIAL GUESS DONE (  49.5 sec)
                      ------------------
             **** ENERGY FILE WAS UPDATED (15h_def2qzvp.en.tmp) ****
Finished Guess after  50.4 sec
Maximum memory used throughout the entire GUESS-calculation: 1151.2 MB

-------------------------------------------------------------------------------------------
                                      ORCA LEAN-SCF
                              memory conserving SCF solver
-------------------------------------------------------------------------------------------

----------------------------------------D-I-I-S--------------------------------------------
Iteration    Energy (Eh)           Delta-E    RMSDP     MaxDP     DIISErr   Damp  Time(sec)
-------------------------------------------------------------------------------------------
               ***  Starting incremental Fock matrix formation  ***
    1    -2169.0469721407498582     0.00e+00  3.29e-03  1.12e+00  7.28e-01  0.700 186.6
Warning: op=0 Small HOMO/LUMO gap (  -0.294) - skipping pre-diagonalization
         LevelShift set to 0.394 Eh
         Will do a full diagonalization
    2    -2169.8168903199120905    -7.70e-01  7.48e-04  2.30e-01  2.83e-01  0.700 170.7
                               ***Turning on AO-DIIS***
    3    -2170.1240315181521510    -3.07e-01  7.05e-04  2.69e-01  1.92e-01  0.700 160.6
    4    -2170.3204816744437267    -1.96e-01  5.74e-04  2.39e-01  1.40e-01  0.700 149.3
    5    -2170.4498867319580313    -1.29e-01  4.41e-04  1.92e-01  1.03e-01  0.700 146.4
    6    -2170.5375701852717611    -8.77e-02  3.36e-04  1.52e-01  8.23e-02  0.700 147.2
    7    -2170.6065345429342415    -6.90e-02  8.29e-04  3.92e-01  7.01e-02  0.000 142.2
    8    -2170.7774031764183746    -1.71e-01  6.93e-05  2.48e-02  1.21e-02  0.000 152.1
    9    -2170.7791223656486181    -1.72e-03  4.70e-05  2.23e-02  3.50e-02  0.000 130.1
                              *** Initializing SOSCF ***
---------------------------------------S-O-S-C-F--------------------------------------
Iteration    Energy (Eh)           Delta-E    RMSDP     MaxDP     MaxGrad    Time(sec)
--------------------------------------------------------------------------------------
   10    -2170.7819853851178777    -2.86e-03  2.03e-05  4.79e-03  2.03e-03   138.2
               *** Restarting incremental Fock matrix formation ***
   11    -2170.7822777899227731    -2.92e-04  3.28e-05  8.54e-03  2.11e-03   184.1
   12    -2170.7825529460933467    -2.75e-04  1.89e-05  4.81e-03  6.76e-04   128.1
   13    -2170.7824155695316222     1.37e-04  1.22e-05  3.72e-03  1.81e-03   126.5
   14    -2170.7825672333538023    -1.52e-04  1.54e-05  5.85e-03  6.21e-04   118.3
   15    -2170.7824113761953413     1.56e-04  1.09e-05  3.69e-03  1.48e-03   126.9
   16    -2170.7825845115448828    -1.73e-04  4.88e-06  1.67e-03  1.37e-04   119.1
   17    -2170.7825700506637077     1.45e-05  3.30e-06  1.31e-03  3.29e-04   119.4
   18    -2170.7825884311832851    -1.84e-05  1.46e-06  2.73e-04  5.78e-05   118.5
   19    -2170.7825858768728722     2.55e-06  9.96e-07  1.77e-04  1.45e-04   108.7
   20    -2170.7825889288405961    -3.05e-06  3.12e-07  5.17e-05  1.23e-05   109.9
   21    -2170.7825888432107604     8.56e-08  1.88e-07  3.14e-05  2.45e-05   104.7
   22    -2170.7825889554833338    -1.12e-07  1.35e-07  2.42e-05  4.10e-06    98.0
   23    -2170.7825889436298894     1.19e-08  8.74e-08  2.19e-05  8.71e-06    97.3
   24    -2170.7825889585392360    -1.49e-08  1.17e-07  6.45e-05  1.07e-06    92.4
   25    -2170.7825889579135037     6.26e-10  6.28e-08  3.58e-05  3.14e-06    91.5
                 **** Energy Check signals convergence ****

               *****************************************************
               *                     SUCCESS                       *
               *           SCF CONVERGED AFTER  25 CYCLES          *
               *****************************************************

             **** ENERGY FILE WAS UPDATED (15h_def2qzvp.en.tmp) ****

----------------
TOTAL SCF ENERGY
----------------

Total Energy       :      -2170.78258896015086 Eh          -59069.99731 eV

Components:
Nuclear Repulsion  :       4820.54711464898901 Eh          131173.75573 eV
Electronic Energy  :      -6991.32970360913987 Eh         -190243.75304 eV
One Electron Energy:     -12593.51588201659433 Eh         -342686.98902 eV
Two Electron Energy:       5602.18617840745446 Eh          152443.23598 eV

Virial components:
Potential Energy   :      -4272.90790444975937 Eh         -116271.73522 eV
Kinetic Energy     :       2102.12531548960851 Eh           57201.73791 eV
Virial Ratio       :          2.03266088513593

DFT components:
N(Alpha)           :      148.000007724188 electrons
N(Beta)            :      148.000007724188 electrons
N(Total)           :      296.000015448376 electrons
E(X)               :     -253.997869749069 Eh       
E(C)               :      -11.062960856344 Eh       
E(XC)              :     -265.060830605413 Eh       

---------------
SCF CONVERGENCE
---------------

  Last Energy change         ...   -6.2573e-10  Tolerance :   1.0000e-09
  Last MAX-Density change    ...    3.5773e-05  Tolerance :   1.0000e-08
  Last RMS-Density change    ...    6.2759e-08  Tolerance :   1.0000e-09
  Last DIIS Error            ...    2.0324e-03  Tolerance :   1.0000e-08
  Last Orbital Gradient      ...    3.1395e-06  Tolerance :   2.0000e-06
  Last Orbital Rotation      ...    5.9607e-06  Tolerance :   2.0000e-06


----------------
ORBITAL ENERGIES
----------------

  NO   OCC          E(Eh)            E(eV) 
   0   2.0000     -76.352769     -2077.6645 
   1   2.0000     -76.352605     -2077.6600 
   2   2.0000      -9.914419      -269.7850 
   3   2.0000      -9.914203      -269.7792 
   4   2.0000      -9.912389      -269.7298 
   5   2.0000      -9.912244      -269.7259 
   6   2.0000      -9.910894      -269.6891 
   7   2.0000      -9.910137      -269.6685 
   8   2.0000      -9.909850      -269.6607 
   9   2.0000      -9.909823      -269.6600 
  10   2.0000      -9.909385      -269.6481 
  11   2.0000      -9.909182      -269.6425 
  12   2.0000      -9.908988      -269.6373 
  13   2.0000      -9.908810      -269.6324 
  14   2.0000      -9.908783      -269.6317 
  15   2.0000      -9.908728      -269.6302 
  16   2.0000      -9.908661      -269.6284 
  17   2.0000      -9.908493      -269.6238 
  18   2.0000      -9.908238      -269.6169 
  19   2.0000      -9.908196      -269.6157 
  20   2.0000      -9.908150      -269.6145 
  21   2.0000      -9.907971      -269.6096 
  22   2.0000      -9.907835      -269.6059 
  23   2.0000      -9.907816      -269.6054 
  24   2.0000      -9.907784      -269.6045 
  25   2.0000      -9.907778      -269.6044 
  26   2.0000      -9.907759      -269.6038 
  27   2.0000      -9.907756      -269.6037 
  28   2.0000      -9.907388      -269.5937 
  29   2.0000      -9.907375      -269.5934 
  30   2.0000      -9.907193      -269.5884 
  31   2.0000      -9.907016      -269.5836 
  32   2.0000      -9.906778      -269.5771 
  33   2.0000      -9.906639      -269.5734 
  34   2.0000      -9.906631      -269.5731 
  35   2.0000      -9.905476      -269.5417 
  36   2.0000      -9.905261      -269.5358 
  37   2.0000      -9.903566      -269.4897 
  38   2.0000      -6.318811      -171.9436 
  39   2.0000      -6.318666      -171.9396 
  40   2.0000      -4.534683      -123.3950 
  41   2.0000      -4.534545      -123.3912 
  42   2.0000      -4.534479      -123.3894 
  43   2.0000      -4.534307      -123.3848 
  44   2.0000      -4.531933      -123.3202 
  45   2.0000      -4.531801      -123.3166 
  46   2.0000      -2.831167       -77.0400 
  47   2.0000      -1.717630       -46.7391 
  48   2.0000      -1.713479       -46.6261 
  49   2.0000      -1.712464       -46.5985 
  50   2.0000      -0.790603       -21.5134 
  51   2.0000      -0.790156       -21.5012 
  52   2.0000      -0.782708       -21.2986 
  53   2.0000      -0.782482       -21.2924 
  54   2.0000      -0.781749       -21.2725 
  55   2.0000      -0.781090       -21.2545 
  56   2.0000      -0.708457       -19.2781 
  57   2.0000      -0.707647       -19.2561 
  58   2.0000      -0.682830       -18.5808 
  59   2.0000      -0.682589       -18.5742 
  60   2.0000      -0.681531       -18.5454 
  61   2.0000      -0.681318       -18.5396 
  62   2.0000      -0.680150       -18.5078 
  63   2.0000      -0.679219       -18.4825 
  64   2.0000      -0.677003       -18.4222 
  65   2.0000      -0.676834       -18.4176 
  66   2.0000      -0.675915       -18.3926 
  67   2.0000      -0.675355       -18.3773 
  68   2.0000      -0.596561       -16.2332 
  69   2.0000      -0.594114       -16.1667 
  70   2.0000      -0.554105       -15.0780 
  71   2.0000      -0.553627       -15.0650 
  72   2.0000      -0.551285       -15.0012 
  73   2.0000      -0.550534       -14.9808 
  74   2.0000      -0.550407       -14.9773 
  75   2.0000      -0.548497       -14.9254 
  76   2.0000      -0.541078       -14.7235 
  77   2.0000      -0.540695       -14.7131 
  78   2.0000      -0.539673       -14.6853 
  79   2.0000      -0.538874       -14.6635 
  80   2.0000      -0.510139       -13.8816 
  81   2.0000      -0.507506       -13.8099 
  82   2.0000      -0.471831       -12.8392 
  83   2.0000      -0.470975       -12.8159 
  84   2.0000      -0.470547       -12.8042 
  85   2.0000      -0.469328       -12.7711 
  86   2.0000      -0.450929       -12.2704 
  87   2.0000      -0.447943       -12.1892 
  88   2.0000      -0.425824       -11.5873 
  89   2.0000      -0.413642       -11.2558 
  90   2.0000      -0.413490       -11.2516 
  91   2.0000      -0.411324       -11.1927 
  92   2.0000      -0.410873       -11.1804 
  93   2.0000      -0.409788       -11.1509 
  94   2.0000      -0.409651       -11.1472 
  95   2.0000      -0.404198       -10.9988 
  96   2.0000      -0.403586       -10.9821 
  97   2.0000      -0.403292       -10.9741 
  98   2.0000      -0.402205       -10.9445 
  99   2.0000      -0.397145       -10.8069 
 100   2.0000      -0.396086       -10.7780 
 101   2.0000      -0.381165       -10.3720 
 102   2.0000      -0.378765       -10.3067 
 103   2.0000      -0.378701       -10.3050 
 104   2.0000      -0.378374       -10.2961 
 105   2.0000      -0.378230       -10.2922 
 106   2.0000      -0.376062       -10.2332 
 107   2.0000      -0.370461       -10.0807 
 108   2.0000      -0.369683       -10.0596 
 109   2.0000      -0.367498       -10.0001 
 110   2.0000      -0.365696        -9.9511 
 111   2.0000      -0.345490        -9.4013 
 112   2.0000      -0.339603        -9.2411 
 113   2.0000      -0.338048        -9.1988 
 114   2.0000      -0.337094        -9.1728 
 115   2.0000      -0.333846        -9.0844 
 116   2.0000      -0.332667        -9.0523 
 117   2.0000      -0.330003        -8.9798 
 118   2.0000      -0.326335        -8.8800 
 119   2.0000      -0.309736        -8.4284 
 120   2.0000      -0.307873        -8.3777 
 121   2.0000      -0.307574        -8.3695 
 122   2.0000      -0.306280        -8.3343 
 123   2.0000      -0.305823        -8.3219 
 124   2.0000      -0.303915        -8.2700 
 125   2.0000      -0.299540        -8.1509 
 126   2.0000      -0.293000        -7.9729 
 127   2.0000      -0.292708        -7.9650 
 128   2.0000      -0.290390        -7.9019 
 129   2.0000      -0.289306        -7.8724 
 130   2.0000      -0.274892        -7.4802 
 131   2.0000      -0.259506        -7.0615 
 132   2.0000      -0.245229        -6.6730 
 133   2.0000      -0.243955        -6.6384 
 134   2.0000      -0.243228        -6.6186 
 135   2.0000      -0.240977        -6.5573 
 136   2.0000      -0.239708        -6.5228 
 137   2.0000      -0.237317        -6.4577 
 138   2.0000      -0.236025        -6.4226 
 139   2.0000      -0.233520        -6.3544 
 140   2.0000      -0.232405        -6.3241 
 141   2.0000      -0.231005        -6.2860 
 142   2.0000      -0.229347        -6.2408 
 143   2.0000      -0.223759        -6.0888 
 144   2.0000      -0.209307        -5.6955 
 145   2.0000      -0.184834        -5.0296 
 146   2.0000      -0.177223        -4.8225 
 147   2.0000      -0.172134        -4.6840 
 148   0.0000      -0.083569        -2.2740 
 149   0.0000      -0.066133        -1.7996 
 150   0.0000      -0.062884        -1.7112 
 151   0.0000      -0.060079        -1.6348 
 152   0.0000      -0.059763        -1.6262 
 153   0.0000      -0.057410        -1.5622 
 154   0.0000      -0.054967        -1.4957 
 155   0.0000      -0.052395        -1.4257 
 156   0.0000      -0.047866        -1.3025 
 157   0.0000      -0.042913        -1.1677 
 158   0.0000      -0.041859        -1.1391 
*Only the first 10 virtual orbitals were printed.

                    ********************************
                    * MULLIKEN POPULATION ANALYSIS *
                    ********************************

-----------------------
MULLIKEN ATOMIC CHARGES
-----------------------
   0 Ru:   -0.133788
   1 P :   -0.325412
   2 P :   -0.266108
   3 C :    0.230871
   4 C :   -0.081166
   5 C :   -0.152342
   6 C :   -0.048196
   7 C :    0.286520
   8 C :   -0.095372
   9 C :   -0.147802
  10 C :   -0.076438
  11 C :   -0.168238
  12 C :   -0.073763
  13 C :    0.293502
  14 C :   -0.050291
  15 C :   -0.078027
  16 C :   -0.140707
  17 C :   -0.079712
  18 C :   -0.165696
  19 C :   -0.085163
  20 C :    0.192043
  21 C :   -0.071755
  22 C :   -0.151479
  23 C :   -0.078656
  24 C :   -0.162795
  25 C :   -0.147423
  26 C :   -0.057541
  27 C :    0.221476
  28 C :   -0.030287
  29 C :   -0.153225
  30 C :   -0.079989
  31 C :   -0.161892
  32 C :   -0.078184
  33 C :   -0.083586
  34 C :   -0.164503
  35 C :   -0.054793
  36 C :    0.241000
  37 C :   -0.066393
  38 C :   -0.160584
  39 H :    0.068067
  40 H :    0.083765
  41 H :    0.075076
  42 H :    0.086906
  43 H :    0.058430
  44 H :    0.057363
  45 H :    0.083513
  46 H :    0.074555
  47 H :    0.083715
  48 H :    0.065235
  49 H :    0.068857
  50 H :    0.056424
  51 H :    0.081353
  52 H :    0.074416
  53 H :    0.085126
  54 H :    0.072086
  55 H :    0.088763
  56 H :    0.075001
  57 H :    0.082158
  58 H :    0.060791
  59 H :    0.066891
  60 H :    0.070063
  61 H :    0.085581
  62 H :    0.084476
  63 H :    0.075734
  64 H :    0.072137
  65 H :    0.045022
  66 H :    0.079513
  67 H :    0.075088
  68 H :    0.085992
  69 H :    0.014111
  70 H :    0.164645
  71 H :    0.015740
  72 H :   -0.010693
Sum of atomic charges:   -0.0000000

--------------------------------
MULLIKEN REDUCED ORBITAL CHARGES
--------------------------------
  0 Rus       :     2.011387  s :     2.011387
      pz      :     2.214371  p :     6.797372
      px      :     2.212347
      py      :     2.370654
      dz2     :     1.382700  d :     7.258818
      dxz     :     1.726438
      dyz     :     1.255689
      dx2y2   :     1.164464
      dxy     :     1.729527
      f0      :     0.005777  f :     0.065684
      f+1     :     0.008646
      f-1     :     0.005972
      f+2     :     0.020609
      f-2     :     0.000185
      f+3     :     0.013540
      f-3     :     0.010954
      g0      :     0.000035  g :     0.000527
      g+1     :     0.000018
      g-1     :     0.000109
      g+2     :     0.000102
      g-2     :     0.000003
      g+3     :     0.000018
      g-3     :     0.000101
      g+4     :     0.000094
      g-4     :     0.000047

  1 P s       :     5.879735  s :     5.879735
      pz      :     2.896950  p :     9.053497
      px      :     3.276151
      py      :     2.880396
      dz2     :     0.059324  d :     0.320142
      dxz     :     0.079186
      dyz     :     0.061982
      dx2y2   :     0.053186
      dxy     :     0.066464
      f0      :     0.009821  f :     0.066344
      f+1     :     0.008371
      f-1     :     0.007343
      f+2     :     0.011300
      f-2     :     0.005714
      f+3     :     0.009747
      f-3     :     0.014047
      g0      :     0.000504  g :     0.005693
      g+1     :     0.000824
      g-1     :     0.000533
      g+2     :     0.000567
      g-2     :     0.000636
      g+3     :     0.000647
      g-3     :     0.000412
      g+4     :     0.000741
      g-4     :     0.000830

  2 P s       :     5.935937  s :     5.935937
      pz      :     2.847396  p :     8.943533
      px      :     3.239761
      py      :     2.856376
      dz2     :     0.060397  d :     0.314536
      dxz     :     0.076296
      dyz     :     0.058814
      dx2y2   :     0.050500
      dxy     :     0.068529
      f0      :     0.009031  f :     0.066437
      f+1     :     0.008748
      f-1     :     0.008450
      f+2     :     0.010440
      f-2     :     0.005490
      f+3     :     0.009679
      f-3     :     0.014600
      g0      :     0.000566  g :     0.005665
      g+1     :     0.000839
      g-1     :     0.000509
      g+2     :     0.000501
      g-2     :     0.000564
      g+3     :     0.000676
      g-3     :     0.000411
      g+4     :     0.000781
      g-4     :     0.000817

  3 C s       :     3.363184  s :     3.363184
      pz      :     0.704731  p :     2.270193
      px      :     0.700220
      py      :     0.865241
      dz2     :     0.020749  d :     0.116577
      dxz     :     0.035720
      dyz     :     0.019694
      dx2y2   :     0.027187
      dxy     :     0.013227
      f0      :     0.005603  f :     0.017996
      f+1     :     0.002154
      f-1     :     0.002128
      f+2     :     0.001988
      f-2     :     0.003043
      f+3     :     0.002450
      f-3     :     0.000630
      g0      :     0.000145  g :     0.001180
      g+1     :     0.000192
      g-1     :     0.000084
      g+2     :     0.000173
      g-2     :     0.000175
      g+3     :     0.000053
      g-3     :     0.000121
      g+4     :     0.000131
      g-4     :     0.000106

  4 C s       :     3.322991  s :     3.322991
      pz      :     0.888285  p :     2.616051
      px      :     0.886359
      py      :     0.841408
      dz2     :     0.016632  d :     0.126337
      dxz     :     0.008089
      dyz     :     0.043453
      dx2y2   :     0.017112
      dxy     :     0.041052
      f0      :     0.002301  f :     0.014764
      f+1     :     0.001623
      f-1     :     0.000964
      f+2     :     0.003998
      f-2     :     0.000882
      f+3     :     0.003897
      f-3     :     0.001099
      g0      :     0.000049  g :     0.001024
      g+1     :     0.000110
      g-1     :     0.000136
      g+2     :     0.000101
      g-2     :     0.000092
      g+3     :     0.000116
      g-3     :     0.000132
      g+4     :     0.000115
      g-4     :     0.000172

  5 C s       :     3.338650  s :     3.338650
      pz      :     0.881357  p :     2.667979
      px      :     0.899586
      py      :     0.887036
      dz2     :     0.039806  d :     0.129811
      dxz     :     0.018731
      dyz     :     0.013827
      dx2y2   :     0.043922
      dxy     :     0.013524
      f0      :     0.001631  f :     0.014849
      f+1     :     0.002057
      f-1     :     0.002295
      f+2     :     0.003845
      f-2     :     0.001011
      f+3     :     0.002242
      f-3     :     0.001767
      g0      :     0.000037  g :     0.001053
      g+1     :     0.000144
      g-1     :     0.000118
      g+2     :     0.000114
      g-2     :     0.000172
      g+3     :     0.000185
      g-3     :     0.000177
      g+4     :     0.000047
      g-4     :     0.000058

  6 C s       :     3.387630  s :     3.387630
      pz      :     0.843961  p :     2.529835
      px      :     0.900559
      py      :     0.785316
      dz2     :     0.015090  d :     0.113379
      dxz     :     0.012889
      dyz     :     0.034174
      dx2y2   :     0.019385
      dxy     :     0.031841
      f0      :     0.002382  f :     0.016335
      f+1     :     0.001370
      f-1     :     0.001507
      f+2     :     0.004651
      f-2     :     0.000750
      f+3     :     0.003848
      f-3     :     0.001827
      g0      :     0.000047  g :     0.001016
      g+1     :     0.000068
      g-1     :     0.000178
      g+2     :     0.000100
      g-2     :     0.000084
      g+3     :     0.000089
      g-3     :     0.000158
      g+4     :     0.000126
      g-4     :     0.000165

  7 C s       :     3.311855  s :     3.311855
      pz      :     0.870436  p :     2.260961
      px      :     0.645258
      py      :     0.745267
      dz2     :     0.016921  d :     0.121314
      dxz     :     0.025438
      dyz     :     0.012642
      dx2y2   :     0.030906
      dxy     :     0.035407
      f0      :     0.000942  f :     0.018168
      f+1     :     0.001681
      f-1     :     0.002085
      f+2     :     0.002846
      f-2     :     0.001504
      f+3     :     0.003288
      f-3     :     0.005823
      g0      :     0.000122  g :     0.001182
      g+1     :     0.000062
      g-1     :     0.000057
      g+2     :     0.000079
      g-2     :     0.000129
      g+3     :     0.000159
      g-3     :     0.000164
      g+4     :     0.000233
      g-4     :     0.000177

  8 C s       :     3.416218  s :     3.416218
      pz      :     0.896924  p :     2.559061
      px      :     0.887012
      py      :     0.775125
      dz2     :     0.010626  d :     0.103065
      dxz     :     0.011075
      dyz     :     0.024640
      dx2y2   :     0.041266
      dxy     :     0.015457
      f0      :     0.000878  f :     0.016004
      f+1     :     0.000962
      f-1     :     0.001469
      f+2     :     0.002204
      f-2     :     0.001951
      f+3     :     0.002042
      f-3     :     0.006499
      g0      :     0.000090  g :     0.001025
      g+1     :     0.000046
      g-1     :     0.000105
      g+2     :     0.000036
      g-2     :     0.000140
      g+3     :     0.000145
      g-3     :     0.000102
      g+4     :     0.000213
      g-4     :     0.000148

  9 C s       :     3.352165  s :     3.352165
[...]
      f-1     :     0.000669
      f+2     :     0.000347
      f-2     :     0.002003
      f+3     :     0.002270
      f-3     :     0.001710

 69 H s       :     0.768421  s :     0.768421
      pz      :     0.101046  p :     0.200220
      px      :     0.042734
      py      :     0.056441
      dz2     :     0.004996  d :     0.055663
      dxz     :     0.002874
      dyz     :     0.026412
      dx2y2   :     0.011638
      dxy     :     0.009743
      f0      :     0.000355  f :     0.004332
      f+1     :     0.000024
      f-1     :     0.000781
      f+2     :     0.001543
      f-2     :     0.000370
      f+3     :     0.000561
      f-3     :     0.000699

 70 H s       :     0.735803  s :     0.735803
      pz      :     0.078565  p :     0.220596
      px      :     0.041754
      py      :     0.100277
      dz2     :     0.014636  d :     0.065231
      dxz     :     0.007805
      dyz     :     0.030293
      dx2y2   :     0.005968
      dxy     :     0.006529
      f0      :     0.000607  f :     0.005524
      f+1     :     0.000260
      f-1     :     0.002244
      f+2     :     0.001135
      f-2     :     0.000704
      f+3     :     0.000259
      f-3     :     0.000315

 71 H s       :     0.834341  s :     0.834341
      pz      :     0.068245  p :     0.204963
      px      :     0.068205
      py      :     0.068513
      dz2     :     0.030650  d :     0.094426
      dxz     :     0.017866
      dyz     :     0.029631
      dx2y2   :     0.007932
      dxy     :     0.008347
      f0      :     0.002518  f :     0.011854
      f+1     :     0.001435
      f-1     :     0.004254
      f+2     :     0.001681
      f-2     :     0.001449
      f+3     :     0.000278
      f-3     :     0.000240

 72 H s       :     0.928969  s :     0.928969
      pz      :     0.039062  p :     0.139536
      px      :     0.049391
      py      :     0.051082
      dz2     :     0.009874  d :     0.065252
      dxz     :     0.004882
      dyz     :     0.019819
      dx2y2   :     0.016635
      dxy     :     0.014042
      f0      :     0.000760  f :     0.007061
      f+1     :     0.000113
      f-1     :     0.001373
      f+2     :     0.001812
      f-2     :     0.000799
      f+3     :     0.000968
      f-3     :     0.001236



                      *****************************
                      * MAYER POPULATION ANALYSIS *
                      *****************************

  NA   - Mulliken gross atomic population
  ZA   - Total nuclear charge
  QA   - Mulliken gross atomic charge
  VA   - Mayer's total valence
  BVA  - Mayer's bonded valence
  FA   - Mayer's free valence

  ATOM       NA         ZA         QA         VA         BVA        FA
  0 Ru    16.1338    16.0000    -0.1338     4.8061     4.8061     0.0000
  1 P     15.3254    15.0000    -0.3254     3.6838     3.6838     0.0000
  2 P     15.2661    15.0000    -0.2661     3.5324     3.5324     0.0000
  3 C      5.7691     6.0000     0.2309     3.3545     3.3545    -0.0000
  4 C      6.0812     6.0000    -0.0812     3.8505     3.8505     0.0000
  5 C      6.1523     6.0000    -0.1523     3.8574     3.8574    -0.0000
  6 C      6.0482     6.0000    -0.0482     3.6124     3.6124    -0.0000
  7 C      5.7135     6.0000     0.2865     3.3232     3.3232     0.0000
  8 C      6.0954     6.0000    -0.0954     3.6848     3.6848    -0.0000
  9 C      6.1478     6.0000    -0.1478     3.8358     3.8358    -0.0000
 10 C      6.0764     6.0000    -0.0764     3.8393     3.8393     0.0000
 11 C      6.1682     6.0000    -0.1682     3.8630     3.8630     0.0000
 12 C      6.0738     6.0000    -0.0738     3.6623     3.6623    -0.0000
 13 C      5.7065     6.0000     0.2935     3.3334     3.3334    -0.0000
 14 C      6.0503     6.0000    -0.0503     3.6209     3.6209    -0.0000
 15 C      6.0780     6.0000    -0.0780     3.6612     3.6612    -0.0000
 16 C      6.1407     6.0000    -0.1407     3.8343     3.8343     0.0000
 17 C      6.0797     6.0000    -0.0797     3.8447     3.8447     0.0000
 18 C      6.1657     6.0000    -0.1657     3.8556     3.8556     0.0000
 19 C      6.0852     6.0000    -0.0852     3.6653     3.6653    -0.0000
 20 C      5.8080     6.0000     0.1920     3.4813     3.4813    -0.0000
 21 C      6.0718     6.0000    -0.0718     3.6457     3.6457    -0.0000
 22 C      6.1515     6.0000    -0.1515     3.8564     3.8564    -0.0000
 23 C      6.0787     6.0000    -0.0787     3.8454     3.8454    -0.0000
 24 C      6.1628     6.0000    -0.1628     3.8473     3.8473    -0.0000
 25 C      6.1474     6.0000    -0.1474     3.8294     3.8294    -0.0000
 26 C      6.0575     6.0000    -0.0575     3.6562     3.6562     0.0000
 27 C      5.7785     6.0000     0.2215     3.4299     3.4299     0.0000
 28 C      6.0303     6.0000    -0.0303     3.5891     3.5891     0.0000
 29 C      6.1532     6.0000    -0.1532     3.8472     3.8472     0.0000
 30 C      6.0800     6.0000    -0.0800     3.8438     3.8438     0.0000
 31 C      6.1619     6.0000    -0.1619     3.8541     3.8541     0.0000
 32 C      6.0782     6.0000    -0.0782     3.6648     3.6648     0.0000
 33 C      6.0836     6.0000    -0.0836     3.8465     3.8465     0.0000
 34 C      6.1645     6.0000    -0.1645     3.8695     3.8695    -0.0000
 35 C      6.0548     6.0000    -0.0548     3.6145     3.6145    -0.0000
 36 C      5.7590     6.0000     0.2410     3.4261     3.4261     0.0000
 37 C      6.0664     6.0000    -0.0664     3.6450     3.6450     0.0000
 38 C      6.1606     6.0000    -0.1606     3.8463     3.8463     0.0000
 39 H      0.9319     1.0000     0.0681     1.0253     1.0253    -0.0000
 40 H      0.9162     1.0000     0.0838     0.9952     0.9952    -0.0000
 41 H      0.9249     1.0000     0.0751     0.9980     0.9980     0.0000
 42 H      0.9131     1.0000     0.0869     0.9933     0.9933    -0.0000
 43 H      0.9416     1.0000     0.0584     1.0285     1.0285    -0.0000
 44 H      0.9426     1.0000     0.0574     1.0124     1.0124    -0.0000
 45 H      0.9165     1.0000     0.0835     0.9975     0.9975    -0.0000
 46 H      0.9254     1.0000     0.0746     0.9990     0.9990     0.0000
 47 H      0.9163     1.0000     0.0837     0.9968     0.9968     0.0000
 48 H      0.9348     1.0000     0.0652     1.0322     1.0322     0.0000
 49 H      0.9311     1.0000     0.0689     1.0212     1.0212     0.0000
 50 H      0.9436     1.0000     0.0564     1.0309     1.0309     0.0000
 51 H      0.9186     1.0000     0.0814     0.9955     0.9955    -0.0000
 52 H      0.9256     1.0000     0.0744     0.9990     0.9990    -0.0000
 53 H      0.9149     1.0000     0.0851     0.9958     0.9958     0.0000
 54 H      0.9279     1.0000     0.0721     1.0189     1.0189     0.0000
 55 H      0.9112     1.0000     0.0888     0.9930     0.9930     0.0000
 56 H      0.9250     1.0000     0.0750     0.9980     0.9980    -0.0000
 57 H      0.9178     1.0000     0.0822     0.9950     0.9950     0.0000
 58 H      0.9392     1.0000     0.0608     1.0386     1.0386    -0.0000
 59 H      0.9331     1.0000     0.0669     1.0039     1.0039    -0.0000
 60 H      0.9299     1.0000     0.0701     1.0326     1.0326     0.0000
 61 H      0.9144     1.0000     0.0856     0.9958     0.9958     0.0000
 62 H      0.9155     1.0000     0.0845     0.9969     0.9969    -0.0000
 63 H      0.9243     1.0000     0.0757     0.9988     0.9988    -0.0000
 64 H      0.9279     1.0000     0.0721     1.0278     1.0278    -0.0000
 65 H      0.9550     1.0000     0.0450     1.0621     1.0621     0.0000
 66 H      0.9205     1.0000     0.0795     0.9969     0.9969     0.0000
 67 H      0.9249     1.0000     0.0751     0.9987     0.9987     0.0000
 68 H      0.9140     1.0000     0.0860     0.9953     0.9953     0.0000
 69 H      0.9859     1.0000     0.0141     1.1073     1.1073     0.0000
 70 H      0.8354     1.0000     0.1646     1.0225     1.0225     0.0000
 71 H      0.9843     1.0000     0.0157     1.0878     1.0878    -0.0000
 72 H      1.0107     1.0000    -0.0107     1.0983     1.0983    -0.0000

  Mayer bond orders larger than 0.100000
B(  0-Ru,  1-P ) :   0.8222 B(  0-Ru,  2-P ) :   0.8188 B(  0-Ru, 69-H ) :   0.6177 
B(  0-Ru, 70-H ) :   0.5406 B(  0-Ru, 71-H ) :   0.7778 B(  0-Ru, 72-H ) :   0.7508 
B(  1-P ,  3-C ) :   0.8332 B(  1-P ,  7-C ) :   0.8326 B(  1-P , 36-C ) :   0.8361 
B(  1-P , 71-H ) :   0.1405 B(  1-P , 72-H ) :   0.1382 B(  2-P , 13-C ) :   0.7921 
B(  2-P , 20-C ) :   0.8197 B(  2-P , 27-C ) :   0.8115 B(  2-P , 71-H ) :   0.1215 
B(  2-P , 72-H ) :   0.1471 B(  3-C , 14-C ) :   1.1479 B(  3-C , 35-C ) :   1.1414 
B(  4-C ,  5-C ) :   1.3432 B(  4-C , 38-C ) :   1.3566 B(  4-C , 46-H ) :   0.9396 
B(  5-C ,  6-C ) :   1.3314 B(  5-C , 45-H ) :   0.9397 B(  6-C , 36-C ) :   1.1427 
B(  6-C , 44-H ) :   0.9494 B(  7-C ,  8-C ) :   1.1563 B(  7-C , 12-C ) :   1.1268 
B(  8-C ,  9-C ) :   1.3365 B(  8-C , 39-H ) :   0.9483 B(  9-C , 10-C ) :   1.3447 
B(  9-C , 40-H ) :   0.9408 B( 10-C , 11-C ) :   1.3496 B( 10-C , 41-H ) :   0.9381 
B( 11-C , 12-C ) :   1.3454 B( 11-C , 42-H ) :   0.9356 B( 12-C , 43-H ) :   0.9522 
B( 13-C , 15-C ) :   1.1741 B( 13-C , 19-C ) :   1.1451 B( 14-C , 25-C ) :   1.3364 
B( 14-C , 50-H ) :   0.9374 B( 15-C , 16-C ) :   1.3342 B( 15-C , 58-H ) :   0.9407 
B( 16-C , 17-C ) :   1.3410 B( 16-C , 57-H ) :   0.9416 B( 17-C , 18-C ) :   1.3524 
B( 17-C , 56-H ) :   0.9381 B( 18-C , 19-C ) :   1.3430 B( 18-C , 55-H ) :   0.9361 
B( 19-C , 54-H ) :   0.9468 B( 20-C , 21-C ) :   1.1617 B( 20-C , 26-C ) :   1.1874 
B( 21-C , 22-C ) :   1.3353 B( 21-C , 59-H ) :   0.9438 B( 22-C , 23-C ) :   1.3430 
B( 22-C , 62-H ) :   0.9409 B( 23-C , 24-C ) :   1.3534 B( 23-C , 63-H ) :   0.9395 
B( 24-C , 26-C ) :   1.3307 B( 24-C , 61-H ) :   0.9396 B( 25-C , 33-C ) :   1.3348 
B( 25-C , 51-H ) :   0.9398 B( 26-C , 60-H ) :   0.9390 B( 27-C , 28-C ) :   1.1692 
B( 27-C , 32-C ) :   1.1788 B( 28-C , 29-C ) :   1.3358 B( 28-C , 65-H ) :   0.9333 
B( 29-C , 30-C ) :   1.3370 B( 29-C , 66-H ) :   0.9414 B( 30-C , 31-C ) :   1.3556 
B( 30-C , 67-H ) :   0.9390 B( 31-C , 32-C ) :   1.3346 B( 31-C , 68-H ) :   0.9386 
B( 32-C , 64-H ) :   0.9378 B( 33-C , 34-C ) :   1.3622 B( 33-C , 52-H ) :   0.9386 
B( 34-C , 35-C ) :   1.3333 B( 34-C , 53-H ) :   0.9392 B( 35-C , 49-H ) :   0.9396 
B( 36-C , 37-C ) :   1.1764 B( 37-C , 38-C ) :   1.3283 B( 37-C , 48-H ) :   0.9419 
B( 38-C , 47-H ) :   0.9405 B( 69-H , 70-H ) :   0.4502 

-------
TIMINGS
-------

Total SCF time: 0 days 0 hours 56 min 0 sec 

Total time                  ....    3360.809 sec
Sum of individual times     ....    3286.229 sec  ( 97.8%)

SCF preparation             ....       0.538 sec  (  0.0%)
Fock matrix formation       ....    3106.013 sec  ( 92.4%)
  Startup                   ....       0.620 sec  (  0.0% of F)
  Split-RI-J                ....    1341.893 sec  ( 43.2% of F)
  XC integration            ....    1839.837 sec  ( 59.2% of F)
    XC Preparation          ....       0.000 sec  (  0.0% of XC)
    Basis function eval.    ....     182.304 sec  (  9.9% of XC)
    Density eval.           ....     759.501 sec  ( 41.3% of XC)
    XC-Functional eval.     ....       8.876 sec  (  0.5% of XC)
    XC-Potential eval.      ....     874.439 sec  ( 47.5% of XC)
Diagonalization             ....       0.000 sec  (  0.0%)
Density matrix formation    ....       4.279 sec  (  0.1%)
Total Energy calculation    ....       0.780 sec  (  0.0%)
Population analysis         ....       3.544 sec  (  0.1%)
Orbital Transformation      ....      17.563 sec  (  0.5%)
Orbital Orthonormalization  ....       0.000 sec  (  0.0%)
DIIS solution               ....      87.863 sec  (  2.6%)
SOSCF solution              ....      65.650 sec  (  2.0%)
Finished LeanSCF after 3361.1 sec

Maximum memory used throughout the entire LEANSCF-calculation: 1412.6 MB

-------------------------   --------------------
FINAL SINGLE POINT ENERGY     -2170.782588960151
-------------------------   --------------------


------------------------------------------------------------------------------
                              ORCA PROPERTY CALCULATIONS
------------------------------------------------------------------------------

GBWName                                 ... 15h_def2qzvp.gbw
Number of atoms                         ...     73
Number of basis functions               ...   3284
Max core memory                         ...   4096 MB

Electric properties:
Dipole moment                           ... YES
Quadrupole moment                       ...  NO
Static polarizability (Dipole/Dipole)   ...  NO
Static polarizability (Dipole/Quad.)    ...  NO
Static polarizability (Quad./Quad.)     ...  NO
Static polarizability (Velocity)        ...  NO
Static hyperpolarizability              ...  NO

Atomic electric properties:
Dipole moment                           ...  NO
Quadrupole moment                       ...  NO
Static polarizability                   ...  NO

Choice of electric origin               ... Center of mass
Position of electric origin             ...    -0.002441    -0.033901     0.016895

General magnetic properties:
Magnetizability                         ...  NO

EPR properties:
g-Tensor (aka g-matrix)                 ...  NO
Zero-Field splitting spin-orbit         ...  NO
Zero-field splitting spin-spin          ...  NO
Hyperfine couplings                     ...  NO (   0 nuclei)
Quadrupole couplings                    ...  NO (   0 nuclei)
Contact density                         ...  NO (   0 nuclei)

NMR properties:
Chemical shifts                         ...  NO (   0 nuclei)
Spin-rotation constants                 ...  NO (   0 nuclei)
Spin-spin couplings                     ...  NO (   0 nuclei,    0 pairs)

Choice of magnetic origin               ... GIAO
Position of magnetic origin             ...     0.000000     0.000000     0.000000

Properties with geometric perturbations:
SCF Hessian                             ...  NO
IR spectrum                             ...  NO
VCD spectrum                            ...  NO
X-ray spectroscopy properties:
SCF XES/XAS/RIXS spectra                ...  NO

SCF SOC stabilization energy            ...  NO
Diagonal Born-Oppenheimer correction    ...  NO

-------------
DIPOLE MOMENT
-------------

Method             : SCF
Type of density    : Electron Density
Multiplicity       :   1
Irrep              :   0
Energy             : -2170.7825889601508607 Eh
Basis              : AO
                                X                 Y                 Z
Electronic contribution:     -0.595911536     -16.398080813     -12.342050120
Nuclear contribution   :      0.614226203      16.192200703      12.592729265
                        -----------------------------------------
Total Dipole Moment    :      0.018314667      -0.205880110       0.250679145
                        -----------------------------------------
Magnitude (a.u.)       :      0.324903186
Magnitude (Debye)      :      0.825838268



--------------------
Rotational spectrum 
--------------------
 
Rotational constants in cm-1:             0.003559             0.001831             0.001814 
Rotational constants in MHz :           106.691148            54.898207            54.385379 

Dipole components along the rotational axes: 
x,y,z [a.u.] :     0.021656    -0.270487    -0.178689 
x,y,z [Debye]:     0.055045    -0.687525    -0.454190 

 

Dipole moment calculation done in   0.1 sec 

Maximum memory used throughout the entire PROP-calculation: 577.4 MB

--------------------------------
SUGGESTED CITATIONS FOR THIS RUN
--------------------------------

Below you find a list of papers that are relevant to this ORCA run
We neither can nor want to force you to cite these papers, but we appreciate if you do
You receive ORCA, which is the product of decades of hard work by many enthusiastic individuals, for free
The only thing we kindly ask in return is that you cite our papers,
We deeply appreciate it, if you show your appreciation for ORCA by not just citing the generic ORCA reference.

Please note that relegating all ORCA citations to the supporting information does *not* help us.
SI sections are not indexed - citations you put there will not count into any citation statistics
But we need these citations in order to attract the funding resources that allow us to do what we are doing

Therefore, if you are a happy ORCA user, please consider citing a few of the papers listed below in the main body of your paper

In addition to the list printed below, the program has created the file 15h_def2qzvp.bibtex that contains the list in bibtex format
You can import this file easily into all common literature databanks and citation aid programs

It goes without saying that in many instances, there are alternative algorithms to achieve similar
results as the ones you have gotten from ORCA. It is, of course, also the case that in some instances
ORCA just re-implements algorithms worked out by others. We are fully aware of that and we are also
fully appreciative of our colleagues work. Hence this citation list should not be read as indicating
that the listed papers, which are focused on our own work, are the only ones worth citing. It simply
meant to make it easier for users to cite ORCA specific papers. It is not a substitute for doing your
own literature research and citing the relevant literature in a scientifically appropriate manner.

List of essential papers. We consider these as the minimum necessary citations

  1. Neese, F.
     Software update: the ORCA program system, version 6.0
     WIRES Comput. Molec. Sci. 2025 15(1), e70019
     doi.org/10.1002/wcms.70019

List of papers to cite with high priority. The work reported in these papers was absolutely
necessary for this run to complete.
Our perspective: the developers of density functionals and basis sets usually get cited in chemistry papers
Good! But without the algorithms to do something with them, the functionals or basis sets would not do anything.
Hence, in our opinion, the algorithm design and method developments papers are equally worthy of getting cited

  1. Neese, F.
     An improvement of the resolution of the identity approximation for the formation of the Coulomb matrix
     J. Comp. Chem. 2003 24(14), 1740-1747
     doi.org/10.1002/jcc.10318
  2. Neese, F.
     The SHARK Integral Generation and Digestion System
     J. Comp. Chem. 2022 44(3), 381
     doi.org/10.1002/jcc.26942

List of suggested additional citations. These are papers that are important in the 'surrounding' of 
of this run, or papers that preceded the highly important papers. If you like your results we are grateful for a citation.

  1. Neese, F.
     The ORCA program system
     WIRES Comput. Molec. Sci. 2012 2(1), 73-78
     doi.org/10.1002/wcms.81
  2. Neese, F.
     Software update: the ORCA program system, version 4.0
     WIRES Comput. Molec. Sci. 2018 8(1), 1-6
     doi.org/10.1002/wcms.1327
  3. Neese, F.; Wennmohs, F.; Becker, U.; Riplinger, C.
     The ORCA quantum chemistry program package
     J. Chem. Phys. 2020 152(22), 224108
     doi.org/10.1063/5.0004608
  4. Neese, F.
     Software update: The ORCA program system—Version 5.0
     WIRES Comput. Molec. Sci. 2022 12(1), e1606
     doi.org/10.1002/wcms.1606

List of optional additional citations

  1. Neese, F.
     Approximate second-order SCF convergence for spin unrestricted wavefunctions
     Chem. Phys. Lett. 2000 325(1-3), 93-98
     doi.org/10.1016/s0009-2614(00)00662-x

Timings for individual modules:

Sum of individual times          ...     3452.254 sec (=  57.538 min)
Startup calculation              ...       40.243 sec (=   0.671 min)   1.2 %
SCF iterations                   ...     3411.652 sec (=  56.861 min)  98.8 %
Property calculations            ...        0.359 sec (=   0.006 min)   0.0 %
                             ****ORCA TERMINATED NORMALLY****
TOTAL RUN TIME: 0 days 0 hours 57 minutes 32 seconds 778 msec
