
                                 *****************
                                 * O   R   C   A *
                                 *****************

                                            #,                                       
                                            ###                                      
                                            ####                                     
                                            #####                                    
                                            ######                                   
                                           ########,                                 
                                     ,,################,,,,,                         
                               ,,#################################,,                 
                          ,,##########################################,,             
                       ,#########################################, ''#####,          
                    ,#############################################,,   '####,        
                  ,##################################################,,,,####,       
                ,###########''''           ''''###############################       
              ,#####''   ,,,,##########,,,,          '''####'''          '####       
            ,##' ,,,,###########################,,,                        '##       
           ' ,,###''''                  '''############,,,                           
         ,,##''                                '''############,,,,        ,,,,,,###''
      ,#''                                            '''#######################'''  
     '                                                          ''''####''''         
             ,#######,   #######,   ,#######,      ##                                
            ,#'     '#,  ##    ##  ,#'     '#,    #''#        ,####,    ,#,          
            ##       ##  ##   ,#'  ##            #'  '#       #'       ,# #          
            ##       ##  #######   ##           ,######,      #####,      #          
            '#,     ,#'  ##    ##  '#,     ,#' ,#      #,     #,   #      #          
             '#######'   ##     ##  '#######'  #'      '#     '####' #    #          



                #########################################################
                #                        -***-                          #
                #          Department of theory and spectroscopy        #
                #                                                       #
                #                      Frank Neese                      #
                #                                                       #
                #     Directorship, Architecture, Infrastructure        #
                #                    SHARK, DRIVERS                     #
                #        Core code/Algorithms in most modules           #
                #                                                       #
                #        Max Planck Institute fuer Kohlenforschung      #
                #                Kaiser Wilhelm Platz 1                 #
                #                 D-45470 Muelheim/Ruhr                 #
                #                      Germany                          #
                #                                                       #
                #                  All rights reserved                  #
                #                        -***-                          #
                #########################################################


                         Program Version 6.1.1  -  RELEASE   -
                                (GIT: $487d211c$)
                          ($2025-11-21 10:33:24 +0100$)


 With contributions from (in alphabetic order):
[Max-Planck-Institut fuer Kohlenforschung]                               
  Daniel Aravena         : Magnetic Suceptibility                        
  Michael Atanasov       : Ab Initio Ligand Field Theory (pilot matlab implementation)
  Alexander A. Auer      : GIAO ZORA, VPT2 properties, NMR spectrum      
  Ute Becker             : All parallelization in ORCA, NUMFREQ, NUMCALC 
  Giovanni Bistoni       : ED, misc. LED, open-shell LED, HFLD           
  Dmytro Bykov           : pre 5.0 version of the SCF Hessian            
  Marcos Casanova-Páez   : Triplet and SCS-CIS(D). UHF-(DLPNO)-IP/EA/STEOM-CCSD. UHF-CVS-IP/STEOM-CCSD   
  Vijay G. Chilkuri      : MRCI spin determinant printing, contributions to CSF-ICE 
  Pauline Colinet        : FMM embedding                                 
  Dipayan Datta          : RHF DLPNO-CCSD density                        
  Achintya Kumar Dutta   : EOM-CC, STEOM-CC                              
  Nicolas Foglia         : Exact transition moments, OPA infrastructure, MCD improvements    
  Dmitry Ganyushin       : Spin-Orbit,Spin-Spin,Magnetic field MRCI      
  Miquel Garcia-Rates    : C-PCM and meta-GGA Hessian, CCSD/C-PCM, Gaussian charge scheme 
  Tiago L. C. Gouveia    : GS-ROHF, GS-ROCIS                             
  Yang Guo               : DLPNO-NEVPT2, F12-NEVPT2, CIM, IAO-localization        
  Andreas Hansen         : Spin unrestricted coupled pair/coupled cluster methods 
  Ingolf Harden          : AUTO-CI MPn and infrastructure                
  Benjamin Helmich-Paris : MC-RPA, TRAH-(SCF,CASSCF), AVAS, COSX integrals, SCF dyn. polar., MC-PDFT, srDFT 
  Lee Huntington         : MR-EOM, pCC                                   
  Robert Izsak           : Overlap fitted RIJCOSX, COSX-SCS-MP3, EOM     
  Riya Kayal             : Wick's Theorem for AUTO-CI, AUTO-CI UHF-CCSDT 
  Emily Kempfer          : AUTO-CI RHF CISDT and CCSDT, approximate NEVPT4
  Christian Kollmar      : KDIIS, OOCD, Brueckner-CCSD(T), CCSD density, CASPT2, CASPT2-K, improved NEVPT2 
  Axel Koslowski         : Symmetry handling                             
  Simone Kossmann        : meta-GGA functionals, TD-DFT gradient, OOMP2, (MP2 Hessian; deprecated post 5.0) 
  Lucas Lang             : DCDCAS, Hyperfine gauge corrections, ICE-SOC+SSC
  Marvin Lechner         : AUTO-CI (C++ implementation), FIC-MRCC        
  Spencer Leger          : CASSCF response                               
  Dagmar Lenk            : GEPOL surface, SMD, ORCA-2-JSON               
  Dimitrios Liakos       : Extrapolation schemes; Compound Job, Property file
  Dimitrios Manganas     : Further ROCIS development; embedding schemes. LFT, Crystal Embedding 
  Dimitrios Pantazis     : SARC Basis sets                               
  Anastasios Papadopoulos: AUTO-CI, single reference methods and gradients 
  Taras Petrenko         : pre 6.0 DFT Hessian and TD-DFT gradient,  ECA, NRVS 
  Petra Pikulova         : Analytic Raman intensities                    
  Peter Pinski           : DLPNO-MP2, DLPNO-MP2 Gradient                 
  Shashank Vittal Rao    : ES-AILFT, MagRelax                            
  Christoph Reimann      : Effective Core Potentials                     
  Marius Retegan         : Local ZFS, SOC                                
  Christoph Riplinger    : Optimizer, TS searches, QM/MM, DLPNO-CCSD(T), (RO)-DLPNO pert. Triples 
  Michael Roemelt        : Original ROCIS implementation, recursive CI coupling coefficients
  Masaaki Saitow         : Open-shell DLPNO-CCSD energy and density      
  Barbara Sandhoefer     : DKH picture change effects                    
  Yorick L. A. Schmerwitz: GMF and freeze-and-release deltaSCF, NEB S-IDPP initial path                    
  Kantharuban Sivalingam : CASSCF convergence/infrastructure, NEVPT2, NEVPT3, NEVPT4(SD), FIC-MRCI and CEPA variants
  Bernardo de Souza      : ESD, SOC TD-DFT                               
  Georgi L. Stoychev     : AutoAux, RI-MP2 NMR, DLPNO-MP2 response, X2C  
  Van Anh Tran           : RI-MP2 g-tensors                              
  Willem Van den Heuvel  : Paramagnetic NMR                              
  Zikuan Wang            : NOTCH, Electric field optimization            
  Frank Wennmohs         : Technical directorship and infrastructure     
  Hang Xu                : AUTO-CI-Response properties                   
                                                                         
[FACCTs GmbH]                                                            
  Markus Bursch, Nicolas Foglia, Miquel Garcia-Rates, Ingolf Harden, Hagen Neugebauer, Anastasios Papadopoulos, 
  Christoph Riplinger, Bernardo de Souza, Georgi L. Stoychev                                                    
                                                                 
  APM, various basis sets, CI-OPT, improved COSX, DLPNO-Multilevel,           
  DOCKER, DRACO, updates on ESD, Fragmentator, GOAT, IRC, LR-CPCM, L-BFGS, MBIS, meta-GGA TD-DFT gradient, ML-optimized integration grids, 
  MM, NACMEs, nearIR, NEB, NEB-TS, NL-DFT gradient (VV10), 2- and 3-layer-ONIOM, interface openCOSMO-RS, QMMM,   
  Crystal-QMMM, RESP, rigid body optimization, SF, symmetry and pop. for TD-DFT, various functionals, SOLVATOR                                   
                                                                         
[Other institutions]                                                     
  V. Asgeirsson          : NEB                                           
  Christoph Bannwarth    : sTDA-DFT, sTD-DFT, PBEh-3c, B97-3c, D3        
  Giovanni Bistoni       : ETS/NOCV, ADLD/ADEX, COVALED                  
  Martin Brehm           : Molecular dynamics                            
  Ronald Cardenas        : ETS/NOCV                                      
  Martina Colucci        : COVALED                                       
  Sebastian Ehlert       : rSCAN, r2SCAN, r2SCAN-3c, D4, dhf basis sets  
  Marvin Friede          : D4 for Fr, Ra, Ac-Lr                          
  Lars Goerigk           : TD-DFT with DH, B97 family of functionals     
  Stefan Grimme          : VdW corrections, initial TS optimization, DFT functionals, gCP, sTDA/sTD-DF 
  Waldemar Hujo          : DFT-NL                                        
  H. Jonsson             : NEB                                           
  Holger Kruse           : gCP                                           
  Marcel Mueller         : wB97X-3c, vDZP basis set                      
  Hagen Neugebauer       : wr2SCAN, Native XTB                           
  Gianluca Regni         : ADLD/ADEX                                     
  Tobias Risthaus        : pre 6.0 range-separated hybrid DFT and stability analysis
  Lukas Wittmann         : regularized MP2, r2SCAN double-hybrids, wr2SCAN        
                                                                         
We gratefully acknowledge several colleagues who have allowed us to      
interface, adapt or use parts of their codes:                            
  Ed Valeev, F. Pavosevic, A. Kumar             : LibInt (2-el integral package), F12 methods 
  Garnet Chan, S. Sharma, J. Yang, R. Olivares  : DMRG                   
  Ulf Ekstrom                                   : XCFun DFT Library      
  Mihaly Kallay                                 : mrcc  (arbitrary order and MRCC methods)
  Frank Weinhold                                : gennbo (NPA and NBO analysis)           
  Simon Mueller                                 : openCOSMO-RS                            
  Christopher J. Cramer and Donald G. Truhlar   : smd solvation model                     
  S Lehtola, MJT Oliveira, MAL Marques          : LibXC Library                           
  Liviu Ungur et al                             : ANISO software                          


 Your calculation uses the libint2 library for the computation of 2-el integrals
 For citations please refer to: http://libint.valeyev.net

 Your ORCA version has been built with support for libXC version: 7.0.0
 For citations please refer to: https://libxc.gitlab.io

 This ORCA versions uses:
   CBLAS   interface :  Fast vector & matrix operations
   LAPACKE interface :  Fast linear algebra routines
   SCALAPACK package :  Parallel linear algebra routines
   Shared memory     :  Shared parallel matrices
   BLAS/LAPACK       :  OpenBLAS 0.3.29  USE64BITINT DYNAMIC_ARCH NO_AFFINITY Cooperlake SINGLE_THREADED
        Core in use  :  Cooperlake
   Copyright (c) 2011-2014, The OpenBLAS Project


  ***********************************
  * Starting time: Mon Jul 13 23:26:08 2026
  * Host name:     c1-5
  * Process ID:    2593419
  * Working dir.:  /cluster/projects/nn14654k/ylvaos/TPhP_bsse/orca/opt1_bp86
  ***********************************

Warning: RI is on but no J-basis has been assigned. Assigning Def2/J (nothing to worry about!)
================================================================================

cite the ECPs for Ru [Def2-ECP] as follows:
Ce-Yb(ecp-28): M. Dolg, H. Stoll, H.Preuss, J. Chem. Phys., 1989, 90, 1730-1734.
Y-Cd(ecp-28), Hf-Hg(ecp-46): D. Andrae,U. Haeussermann, M. Dolg, H. Stoll, H. Preuss, Theor. Chim. Acta, 1990, 77, 123-141.
In-Sb(ecp-28), Tl-Bi(ecp-46): B. Metz, H. Stoll, M. Dolg, J. Chem. Phys., 2000, 113, 2563-2569.
Te-Xe(ecp-28), Po-Rn(ecp-46): K. A. Peterson, D. Figgen, E. Goll, H. Stoll, M. Dolg, J. Chem. Phys., 2003, 119, 11113-11123.
Rb(ecp-28), Cs(ecp-46): T. Leininger, A. Nicklass, W. Kuechle, H. Stoll, M. Dolg, A. Bergner, Chem. Phys. Lett., 1996, 255, 274-280.
Sr(ecp-28), Ba(ecp-46): M. Kaupp, P. V. Schleyer, H. Stoll and H. Preuss, J. Chem. Phys., 1991, 94, 1360-1366.
La(ecp-46): M. Dolg, H. Stoll, A. Savin, H. Preuss, Theor. Chim. Acta, 1989, 75, 173-194.
Lu(ecp-28): X. Cao, M. Dolg, J. Chem. Phys., 2001, 115, 7348-7355.

ECP parameters for Ru [Def2-ECP] have been obtained from:
TURBOMOLE (7.0.2)

----- Orbital basis set information -----
Your calculation utilizes the basis: def2-TZVP
   F. Weigend and R. Ahlrichs, Phys. Chem. Chem. Phys. 7, 3297 (2005).

----- AuxJ basis set information -----
Your calculation utilizes the auxiliary basis: def2/J
   H-Rn: F. Weigend, Phys. Chem. Chem. Phys. 8, 1057 (2006).
   Fr-Lr: K. Eichkorn, F. Weigend, O. Treutler, R. Ahlrichs; Theor. Chem. Acc. 97, 119 (1997).

================================================================================
                                        WARNINGS
                       Please study these warnings very carefully!
================================================================================


================================================================================
                                       INPUT FILE
================================================================================
NAME = 15h_def2tzvp.inp
|  1> ! BP86 def2-TZVP VeryTightSCF defgrid3
|  2> 
|  3> *xyz 0 1
|  4>   Ru         -0.00925004775463     -0.25536936277321     -0.18825278681969
|  5>   P          -2.28746525779038     -0.03663875983905     -0.11703056887638
|  6>   P           2.27352104051140     -0.06830618284926     -0.08987424438066
|  7>   C          -2.95694403329638     -0.56589388803592      1.51166183203681
|  8>   C          -4.68588002631837     -2.65522342081126     -3.10800690267257
|  9>   C          -3.80429316837499     -3.22819478832069     -2.18599586412859
| 10>   C          -3.10436431259569     -2.41792058145074     -1.29607166149743
| 11>   C          -2.99847462219471      1.64290792078062     -0.29732141253688
| 12>   C          -2.23385390083417      2.64917097877968     -0.89478195778610
| 13>   C          -2.76830796604987      3.92698741816221     -1.07445013172761
| 14>   C          -4.06643234864214      4.20901696201014     -0.64889027413227
| 15>   C          -4.83176030962395      3.21044174182241     -0.04030731663076
| 16>   C          -4.29972833148420      1.93379203475753      0.13445813244788
| 17>   C           2.99491750875301      1.59111204001732     -0.38021386514532
| 18>   C          -2.21051644255673     -0.21407730749035      2.64586108236492
| 19>   C           2.37967658113588      2.43970612448855     -1.30719427688353
| 20>   C           2.92777172643227      3.69103260050782     -1.59053790210380
| 21>   C           4.08976402505571      4.10982886483225     -0.93960158536038
| 22>   C           4.70271791757583      3.27216720930878     -0.00582852741145
| 23>   C           4.15884700050561      2.01697745342086      0.27127570517234
| 24>   C           3.31976765096714     -1.14242351397956     -1.15247015611903
| 25>   C           2.99592077218013     -2.50551127759317     -1.21249805943498
| 26>   C           3.75318693304898     -3.38324175348832     -1.98496482711764
| 27>   C           4.83714731127259     -2.90417476363681     -2.72608274499744
| 28>   C           5.15764292152911     -1.54804022712270     -2.68341408715564
| 29>   C          -2.64432555630812     -0.57745835685807      3.92039352144551
| 30>   C           4.40548547649142     -0.67050322186508     -1.89707926270940
| 31>   C           2.89245257728965     -0.46936486279866      1.59483798518449
| 32>   C           2.20758734445452      0.10130465561008      2.67880710165029
| 33>   C           2.61228847035378     -0.15837970188818      3.98733524808428
| 34>   C           3.70296383619983     -0.99720472000655      4.22925016418195
| 35>   C           4.38740598136241     -1.56931158792676      3.15661374661631
| 36>   C           3.98586899012409     -1.30633116225817      1.84448154354112
| 37>   C          -3.82889292060837     -1.30062111529284      4.07551930087801
| 38>   C          -4.57603645685308     -1.65638367945022      2.95165076660308
| 39>   C          -4.14267454720824     -1.29182530235421      1.67508057706404
| 40>   C          -3.28771063935641     -1.02679901373114     -1.29745485201502
| 41>   C          -4.16794058720015     -0.46111044649408     -2.22429169263643
| 42>   C          -4.86115631793298     -1.27295527595040     -3.12773846958253
| 43>   H          -1.20991149009259      2.42159095646420     -1.19918772631452
| 44>   H          -2.16192721334001      4.70834085853446     -1.54165989492825
| 45>   H          -4.48288863246924      5.21164649636179     -0.78416457524854
| 46>   H          -5.84695372240125      3.42922560047627      0.30327393917855
| 47>   H          -4.90262492728677      1.15835429674455      0.61500041668560
| 48>   H          -2.40623162946576     -2.86943335648449     -0.58427857125151
| 49>   H          -3.65737821690662     -4.31201742786721     -2.16707479342193
| 50>   H          -5.23133392712212     -3.28901416320762     -3.81322464664498
| 51>   H          -5.54329988582764     -0.81658302232318     -3.85092763442358
| 52>   H          -4.31588612463561      0.62083858413486     -2.24935320858425
| 53>   H          -4.73263768617876     -1.57995437424440      0.80109696835359
| 54>   H          -1.28458599740284      0.35583855227449      2.51790014519603
| 55>   H          -2.05280865632817     -0.29745775090676      4.79687564548462
| 56>   H          -4.16896356970783     -1.58970132294633      5.07423354951906
| 57>   H          -5.50403264935004     -2.22394123709266      3.06760212173425
| 58>   H           4.64436625084629      1.36640076598571      1.00366645935336
| 59>   H           5.60938188448777      3.59803475873697      0.51221082985407
| 60>   H           4.51580729111323      5.09401220764028     -1.15581412249854
| 61>   H           2.43960374945311      4.34640010036442     -2.31770376201266
| 62>   H           1.45880981772429      2.11152052679666     -1.79532527345965
| 63>   H           2.14014692322358     -2.88028865666619     -0.64323717470634
| 64>   H           4.66921520912483      0.38914299861227     -1.87001242348478
| 65>   H           6.00065144030798     -1.16505166724214     -3.26586991272061
| 66>   H           3.49242154786639     -4.44512314954162     -2.01647299512800
| 67>   H           5.42813238343469     -3.58957667620333     -3.34054600566663
| 68>   H           4.53161980236671     -1.75729766541695      1.01207465358882
| 69>   H           1.35617610851651      0.75993782615411      2.48184588770295
| 70>   H           2.07256648010496      0.29531945964719      4.82375193652039
| 71>   H           4.01916421243715     -1.20498208662908      5.25565959014262
| 72>   H           5.24310874311027     -2.22582257597751      3.33959534953812
| 73>   H          -0.06889236630291     -1.89070629596966     -0.78406801540654
| 74>   H          -0.00404706649099     -1.35374399510523     -1.49081610496843
| 75>   H          -0.01446580762212      0.53784207698531     -1.52164479141234
| 76>   H           0.01480645255371      1.17573762767796      0.60021686202054
| 77> **                         ****END OF INPUT****
================================================================================

                       ****************************
                       * Single Point Calculation *
                       ****************************

---------------------------------
CARTESIAN COORDINATES (ANGSTROEM)
---------------------------------
  Ru    -0.009250   -0.255369   -0.188253
  P     -2.287465   -0.036639   -0.117031
  P      2.273521   -0.068306   -0.089874
  C     -2.956944   -0.565894    1.511662
  C     -4.685880   -2.655223   -3.108007
  C     -3.804293   -3.228195   -2.185996
  C     -3.104364   -2.417921   -1.296072
  C     -2.998475    1.642908   -0.297321
  C     -2.233854    2.649171   -0.894782
  C     -2.768308    3.926987   -1.074450
  C     -4.066432    4.209017   -0.648890
  C     -4.831760    3.210442   -0.040307
  C     -4.299728    1.933792    0.134458
  C      2.994918    1.591112   -0.380214
  C     -2.210516   -0.214077    2.645861
  C      2.379677    2.439706   -1.307194
  C      2.927772    3.691033   -1.590538
  C      4.089764    4.109829   -0.939602
  C      4.702718    3.272167   -0.005829
  C      4.158847    2.016977    0.271276
  C      3.319768   -1.142424   -1.152470
  C      2.995921   -2.505511   -1.212498
  C      3.753187   -3.383242   -1.984965
  C      4.837147   -2.904175   -2.726083
  C      5.157643   -1.548040   -2.683414
  C     -2.644326   -0.577458    3.920394
  C      4.405485   -0.670503   -1.897079
  C      2.892453   -0.469365    1.594838
  C      2.207587    0.101305    2.678807
  C      2.612288   -0.158380    3.987335
  C      3.702964   -0.997205    4.229250
  C      4.387406   -1.569312    3.156614
  C      3.985869   -1.306331    1.844482
  C     -3.828893   -1.300621    4.075519
  C     -4.576036   -1.656384    2.951651
  C     -4.142675   -1.291825    1.675081
  C     -3.287711   -1.026799   -1.297455
  C     -4.167941   -0.461110   -2.224292
  C     -4.861156   -1.272955   -3.127738
  H     -1.209911    2.421591   -1.199188
  H     -2.161927    4.708341   -1.541660
  H     -4.482889    5.211646   -0.784165
  H     -5.846954    3.429226    0.303274
  H     -4.902625    1.158354    0.615000
  H     -2.406232   -2.869433   -0.584279
  H     -3.657378   -4.312017   -2.167075
  H     -5.231334   -3.289014   -3.813225
  H     -5.543300   -0.816583   -3.850928
  H     -4.315886    0.620839   -2.249353
  H     -4.732638   -1.579954    0.801097
  H     -1.284586    0.355839    2.517900
  H     -2.052809   -0.297458    4.796876
  H     -4.168964   -1.589701    5.074234
  H     -5.504033   -2.223941    3.067602
  H      4.644366    1.366401    1.003666
  H      5.609382    3.598035    0.512211
  H      4.515807    5.094012   -1.155814
  H      2.439604    4.346400   -2.317704
  H      1.458810    2.111521   -1.795325
  H      2.140147   -2.880289   -0.643237
  H      4.669215    0.389143   -1.870012
  H      6.000651   -1.165052   -3.265870
  H      3.492422   -4.445123   -2.016473
  H      5.428132   -3.589577   -3.340546
  H      4.531620   -1.757298    1.012075
  H      1.356176    0.759938    2.481846
  H      2.072566    0.295319    4.823752
  H      4.019164   -1.204982    5.255660
  H      5.243109   -2.225823    3.339595
  H     -0.068892   -1.890706   -0.784068
  H     -0.004047   -1.353744   -1.490816
  H     -0.014466    0.537842   -1.521645
  H      0.014806    1.175738    0.600217

----------------------------
CARTESIAN COORDINATES (A.U.)
----------------------------
  NO LB      ZA    FRAG     MASS         X           Y           Z
   0 Ru   16.0000*   0   101.070   -0.017480   -0.482578   -0.355746
   1 P    15.0000    0    30.974   -4.322683   -0.069237   -0.221156
   2 P    15.0000    0    30.974    4.296332   -0.129080   -0.169838
   3 C     6.0000    0    12.011   -5.587814   -1.069384    2.856627
   4 C     6.0000    0    12.011   -8.855030   -5.017645   -5.873282
   5 C     6.0000    0    12.011   -7.189072   -6.100404   -4.130934
   6 C     6.0000    0    12.011   -5.866398   -4.569208   -2.449220
   7 C     6.0000    0    12.011   -5.666296    3.104646   -0.561856
   8 C     6.0000    0    12.011   -4.221372    5.006208   -1.690893
   9 C     6.0000    0    12.011   -5.231344    7.420931   -2.030416
  10 C     6.0000    0    12.011   -7.684443    7.953889   -1.226225
  11 C     6.0000    0    12.011   -9.130704    6.066856   -0.076170
  12 C     6.0000    0    12.011   -8.125309    3.654337    0.254089
  13 C     6.0000    0    12.011    5.659574    3.006766   -0.718500
  14 C     6.0000    0    12.011   -4.177271   -0.404547    4.999953
  15 C     6.0000    0    12.011    4.496937    4.610376   -2.470239
  16 C     6.0000    0    12.011    5.532687    6.975041   -3.005681
  17 C     6.0000    0    12.011    7.728534    7.766451   -1.775590
  18 C     6.0000    0    12.011    8.886849    6.183500   -0.011014
  19 C     6.0000    0    12.011    7.859082    3.811535    0.512637
  20 C     6.0000    0    12.011    6.273452   -2.158868   -2.177853
  21 C     6.0000    0    12.011    5.661470   -4.734730   -2.291289
  22 C     6.0000    0    12.011    7.092495   -6.393400   -3.751040
  23 C     6.0000    0    12.011    9.140884   -5.488095   -5.151550
  24 C     6.0000    0    12.011    9.746533   -2.925372   -5.070918
  25 C     6.0000    0    12.011   -4.997051   -1.091238    7.408470
  26 C     6.0000    0    12.011    8.325161   -1.267067   -3.584960
  27 C     6.0000    0    12.011    5.465943   -0.886971    3.013807
  28 C     6.0000    0    12.011    4.171735    0.191438    5.062212
  29 C     6.0000    0    12.011    4.936510   -0.299294    7.534972
  30 C     6.0000    0    12.011    6.997588   -1.884444    7.992125
  31 C     6.0000    0    12.011    8.290996   -2.965569    5.965135
  32 C     6.0000    0    12.011    7.532201   -2.468608    3.485565
  33 C     6.0000    0    12.011   -7.235559   -2.457818    7.701615
  34 C     6.0000    0    12.011   -8.647456   -3.130112    5.577812
  35 C     6.0000    0    12.011   -7.828520   -2.441196    3.165444
  36 C     6.0000    0    12.011   -6.212873   -1.940369   -2.451834
  37 C     6.0000    0    12.011   -7.876266   -0.871372   -4.203302
  38 C     6.0000    0    12.011   -9.186254   -2.405537   -5.910569
  39 H     1.0000    0     1.008   -2.286401    4.576144   -2.266136
  40 H     1.0000    0     1.008   -4.085450    8.897475   -2.913315
  41 H     1.0000    0     1.008   -8.471432    9.848585   -1.481856
  42 H     1.0000    0     1.008  -11.049141    6.480297    0.573105
  43 H     1.0000    0     1.008   -9.264618    2.188972    1.162182
  44 H     1.0000    0     1.008   -4.547119   -5.422443   -1.104126
  45 H     1.0000    0     1.008   -6.911443   -8.148532   -4.095178
  46 H     1.0000    0     1.008   -9.885788   -6.215336   -7.205950
  47 H     1.0000    0     1.008  -10.475319   -1.543118   -7.277199
  48 H     1.0000    0     1.008   -8.155843    1.173215   -4.250662
  49 H     1.0000    0     1.008   -8.943389   -2.985681    1.513854
  50 H     1.0000    0     1.008   -2.427516    0.672437    4.758142
  51 H     1.0000    0     1.008   -3.879246   -0.562114    9.064781
  52 H     1.0000    0     1.008   -7.878199   -3.004100    9.588912
  53 H     1.0000    0     1.008  -10.401114   -4.202640    5.796928
  54 H     1.0000    0     1.008    8.776580    2.582123    1.896655
  55 H     1.0000    0     1.008   10.600196    6.799300    0.967938
  56 H     1.0000    0     1.008    8.533639    9.626288   -2.184172
  57 H     1.0000    0     1.008    4.610183    8.213506   -4.379825
  58 H     1.0000    0     1.008    2.756751    3.990196   -3.392673
  59 H     1.0000    0     1.008    4.044292   -5.442957   -1.215542
  60 H     1.0000    0     1.008    8.823538    0.735374   -3.533811
  61 H     1.0000    0     1.008   11.339588   -2.201629   -6.171600
  62 H     1.0000    0     1.008    6.599720   -8.400065   -3.810582
  63 H     1.0000    0     1.008   10.257684   -6.783317   -6.312717
  64 H     1.0000    0     1.008    8.563520   -3.320811    1.912544
  65 H     1.0000    0     1.008    2.562801    1.436074    4.690009
  66 H     1.0000    0     1.008    3.916583    0.558073    9.115570
  67 H     1.0000    0     1.008    7.595120   -2.277086    9.931757
  68 H     1.0000    0     1.008    9.908040   -4.206195    6.310921
  69 H     1.0000    0     1.008   -0.130188   -3.572917   -1.481674
  70 H     1.0000    0     1.008   -0.007648   -2.558205   -2.817234
  71 H     1.0000    0     1.008   -0.027336    1.016374   -2.875492
  72 H     1.0000    0     1.008    0.027980    2.221822    1.134245
* core charge reduced due to ECP

--------------------------------
INTERNAL COORDINATES (ANGSTROEM)
--------------------------------
 Ru     0   0   0     0.000000000000     0.00000000     0.00000000
 P      1   0   0     2.289799166789     0.00000000     0.00000000
 P      1   2   0     2.292534582579   168.98421915     0.00000000
 C      2   1   3     1.838736457018   111.24219099   272.44986198
 C      2   1   3     4.642770558395   116.10790885   155.47541185
 C      5   2   1     1.398426233765    58.71306618    57.05574078
 C      6   5   2     1.392267854940   119.99361705     0.37037397
 C      2   1   3     1.832734611710   118.06462740    29.97699379
 C      8   2   1     1.397916053473   119.30840243    20.85873310
 C      9   8   2     1.396687743667   120.28108353   178.30603337
 C     10   9   8     1.394908157794   120.12180598     0.48175609
 C     11  10   9     1.397588127595   119.86767156     0.07825453
 C     12  11  10     1.394071541387   119.99464072   359.68824182
 C      3   1   2     1.832588005570   117.32647106   325.86722496
 C      4   2   1     1.402617907346   116.76292633    39.35299026
 C     14   3   1     1.399259090719   118.75244986   324.94466271
 C     16  14   3     1.395173769764   120.38052826   182.34025332
 C     17  16  14     1.396185697365   120.08609244   359.40262996
 C     18  17  16     1.396181093999   119.81692472     0.09150337
 C     19  18  17     1.395737673575   120.08347614     0.30911106
 C      3   1   2     1.837789455451   119.62820700   201.09075804
 C     21   3   1     1.402315371587   117.47688465   314.36089868
 C     22  21   3     1.393042617398   120.70740154   180.72890075
 C     23  22  21     1.397759296348   119.97535711   359.06887165
 C     24  23  22     1.394144516068   119.69904182     0.24497982
 C     15   4   2     1.394513919788   120.54057553   180.11178981
 C     25  24  23     1.397903599630   120.27559947     0.41544504
 C      3   1   2     1.839070310898   110.89331798    82.63733012
 C     28   3   1     1.403457563248   117.04096496   314.35337873
 C     29  28   3     1.394082091142   120.50094560   179.75955819
 C     30  29  28     1.397040798014   120.06745265   359.68827635
 C     31  30  29     1.395104369818   119.74255893     0.22739937
 C     32  31  30     1.397169130050   120.25695676     0.00000000
 C     26  15   4     1.396505718999   120.02205960     0.16919968
 C     34  26  15     1.395661473331   119.77792818   359.93972569
 C     35  34  26     1.396544594298   120.22651151     0.00000000
 C      7   6   5     1.403152523758   120.70857071     0.99347970
 C     37   7   6     1.397796424848   118.95802110   358.85114590
 C      5   2   1     1.393476349793    60.96288936   236.52326625
 H      9   8   2     1.092205840941   118.81050611   357.18604898
 H     10   9   8     1.093844494829   119.75807847   179.91424078
 H     11  10   9     1.094075388644   120.11922418   179.62919479
 H     12  11  10     1.093861107041   120.13848645   179.44588458
 H     13  12  11     1.093484740500   119.60956647   179.75641107
 H      7   6   5     1.094487292112   119.75396628   180.74305268
 H      6   5   2     1.093898315144   120.13394668   180.82628679
 H      5   2   1     1.093865955894   178.64521616    25.17121406
 H     39   5   2     1.093891241963   120.10883993   179.01856549
 H     38  37   7     1.092304749833   120.09062121   180.70628590
 H     36  35  34     1.093124977167   119.64073199   179.68493278
 H     15   4   2     1.094771792620   119.08813258     0.48915274
 H     26  15   4     1.093852593385   119.82909733   179.96707789
 H     34  26  15     1.093912959643   120.12944969   179.77967112
 H     35  34  26     1.093957600313   120.06722122   179.92306293
 H     20  19  18     1.093332147838   119.67465763   179.99590860
 H     19  18  17     1.093889383961   120.12456854   180.42416024
 H     18  17  16     1.094019002591   120.11978531   180.46106708
 H     17  16  14     1.093885150020   119.80399336   179.93061122
 H     16  14   3     1.092690831071   118.96971650     3.05072490
 H     22  21   3     1.094013217153   119.43009141     0.57792857
 H     27  25  24     1.092307693936   119.53856869   179.80208848
 H     25  24  23     1.093891397017   120.09507779   180.39193854
 H     23  22  21     1.093884568885   119.86992044   179.58280324
 H     24  23  22     1.093894069817   120.13597764   180.54411890
 H     33  32  31     1.092756133122   119.61554591   179.79266486
 H     29  28   3     1.094299988953   119.03803789   359.25543562
 H     30  29  28     1.093954127297   119.81359863   179.77627591
 H     31  30  29     1.093924321749   120.14452831   180.24130924
 H     32  31  30     1.093945227560   120.08313103   179.91144295
 H      1   2   8     1.741516545386    93.79961859   207.29775076
 H     70   1   2     0.889958587552    72.70015975    93.56676227
 H      1   2   8     1.551497931106    88.54164949   307.94249797
 H      1   2   8     1.634114537132    85.18044911    36.16620798

---------------------------
INTERNAL COORDINATES (A.U.)
---------------------------
 Ru     0   0   0     0.000000000000     0.00000000     0.00000000
 P      1   0   0     4.327093326912     0.00000000     0.00000000
 P      1   2   0     4.332262513617   168.98421915     0.00000000
 C      2   1   3     3.474708336221   111.24219099   272.44986198
 C      2   1   3     8.773564858000   116.10790885   155.47541185
 C      5   2   1     2.642642600306    58.71306618    57.05574078
 C      6   5   2     2.631004950899   119.99361705     0.37037397
 C      2   1   3     3.463366492290   118.06462740    29.97699379
 C      8   2   1     2.641678499276   119.30840243    20.85873310
 C      9   8   2     2.639357330135   120.28108353   178.30603337
 C     10   9   8     2.635994400203   120.12180598     0.48175609
 C     11  10   9     2.641058809175   119.86767156     0.07825453
 C     12  11  10     2.634413424314   119.99464072   359.68824182
 C      3   1   2     3.463089446836   117.32647106   325.86722496
 C      4   2   1     2.650563715419   116.76292633    39.35299026
 C     14   3   1     2.644216471859   118.75244986   324.94466271
 C     16  14   3     2.636496334084   120.38052826   182.34025332
 C     17  16  14     2.638408600119   120.08609244   359.40262996
 C     18  17  16     2.638399901017   119.81692472     0.09150337
 C     19  18  17     2.637561957853   120.08347614     0.30911106
 C      3   1   2     3.472918762611   119.62820700   201.09075804
 C     21   3   1     2.649992005688   117.47688465   314.36089868
 C     22  21   3     2.632469039763   120.70740154   180.72890075
 C     23  22  21     2.641382271240   119.97535711   359.06887165
 C     24  23  22     2.634551326476   119.69904182     0.24497982
 C     15   4   2     2.635249398340   120.54057553   180.11178981
 C     25  24  23     2.641654964924   120.27559947     0.41544504
 C      3   1   2     3.475339228623   110.89331798    82.63733012
 C     28   3   1     2.652150435120   117.04096496   314.35337873
 C     29  28   3     2.634433360463   120.50094560   179.75955819
 C     30  29  28     2.640024506161   120.06745265   359.68827635
 C     31  30  29     2.636365187192   119.74255893     0.22739937
 C     32  31  30     2.640267018563   120.25695676     0.00000000
 C     26  15   4     2.639013353363   120.02205960     0.16919968
 C     34  26  15     2.637417960261   119.77792818   359.93972569
 C     35  34  26     2.639086817030   120.22651151     0.00000000
 C      7   6   5     2.651573994022   120.70857071     0.99347970
 C     37   7   6     2.641452433936   118.95802110   358.85114590
 C      5   2   1     2.633288675205    60.96288936   236.52326625
 H      9   8   2     2.063969921248   118.81050611   357.18604898
 H     10   9   8     2.067066528325   119.75807847   179.91424078
 H     11  10   9     2.067502854400   120.11922418   179.62919479
 H     12  11  10     2.067097920856   120.13848645   179.44588458
 H     13  12  11     2.066386691166   119.60956647   179.75641107
 H      7   6   5     2.068281239149   119.75396628   180.74305268
 H      6   5   2     2.067168233980   120.13394668   180.82628679
 H      5   2   1     2.067107083859   178.64521616    25.17121406
 H     39   5   2     2.067154867606   120.10883993   179.01856549
 H     38  37   7     2.064156831966   120.09062121   180.70628590
 H     36  35  34     2.065706836995   119.64073199   179.68493278
 H     15   4   2     2.068818867193   119.08813258     0.48915274
 H     26  15   4     2.067081832377   119.82909733   179.96707789
 H     34  26  15     2.067195908072   120.12944969   179.77967112
 H     35  34  26     2.067280266713   120.06722122   179.92306293
 H     20  19  18     2.066098332825   119.67465763   179.99590860
 H     19  18  17     2.067151356490   120.12456854   180.42416024
 H     18  17  16     2.067396300202   120.11978531   180.46106708
 H     17  16  14     2.067143355500   119.80399336   179.93061122
 H     16  14   3     2.064886419771   118.96971650     3.05072490
 H     22  21   3     2.067385367309   119.43009141     0.57792857
 H     27  25  24     2.064162395515   119.53856869   179.80208848
 H     25  24  23     2.067155160615   120.09507779   180.39193854
 H     23  22  21     2.067142257315   119.86992044   179.58280324
 H     24  23  22     2.067160211474   120.13597764   180.54411890
 H     33  32  31     2.065009822763   119.61554591   179.79266486
 H     29  28   3     2.067927287474   119.03803789   359.25543562
 H     30  29  28     2.067273703664   119.81359863   179.77627591
 H     31  30  29     2.067217379341   120.14452831   180.24130924
 H     32  31  30     2.067256885599   120.08313103   179.91144295
 H      1   2   8     3.290989328473    93.79961859   207.29775076
 H     70   1   2     1.681778001004    72.70015975    93.56676227
 H      1   2   8     2.931906187136    88.54164949   307.94249797
 H      1   2   8     3.088028946640    85.18044911    36.16620798

---------------------
BASIS SET INFORMATION
---------------------
There are 4 groups of distinct atoms

 Group   1 Type Ru  : 7s7p5d1f contracted to 6s4p3d1f pattern {211111/4111/311/1}
 Group   2 Type P   : 14s9p3d1f contracted to 5s5p2d1f pattern {73211/51111/21/1}
 Group   3 Type C   : 11s6p2d1f contracted to 5s3p2d1f pattern {62111/411/11/1}
 Group   4 Type H   : 5s1p contracted to 3s1p pattern {311/1}

Atom   0Ru   basis set group =>   1
Atom   1P    basis set group =>   2
Atom   2P    basis set group =>   2
Atom   3C    basis set group =>   3
Atom   4C    basis set group =>   3
Atom   5C    basis set group =>   3
Atom   6C    basis set group =>   3
Atom   7C    basis set group =>   3
Atom   8C    basis set group =>   3
Atom   9C    basis set group =>   3
Atom  10C    basis set group =>   3
Atom  11C    basis set group =>   3
Atom  12C    basis set group =>   3
Atom  13C    basis set group =>   3
Atom  14C    basis set group =>   3
Atom  15C    basis set group =>   3
Atom  16C    basis set group =>   3
Atom  17C    basis set group =>   3
Atom  18C    basis set group =>   3
Atom  19C    basis set group =>   3
Atom  20C    basis set group =>   3
Atom  21C    basis set group =>   3
Atom  22C    basis set group =>   3
Atom  23C    basis set group =>   3
Atom  24C    basis set group =>   3
Atom  25C    basis set group =>   3
Atom  26C    basis set group =>   3
Atom  27C    basis set group =>   3
Atom  28C    basis set group =>   3
Atom  29C    basis set group =>   3
Atom  30C    basis set group =>   3
Atom  31C    basis set group =>   3
Atom  32C    basis set group =>   3
Atom  33C    basis set group =>   3
Atom  34C    basis set group =>   3
Atom  35C    basis set group =>   3
Atom  36C    basis set group =>   3
Atom  37C    basis set group =>   3
Atom  38C    basis set group =>   3
Atom  39H    basis set group =>   4
Atom  40H    basis set group =>   4
Atom  41H    basis set group =>   4
Atom  42H    basis set group =>   4
Atom  43H    basis set group =>   4
Atom  44H    basis set group =>   4
Atom  45H    basis set group =>   4
Atom  46H    basis set group =>   4
Atom  47H    basis set group =>   4
Atom  48H    basis set group =>   4
Atom  49H    basis set group =>   4
Atom  50H    basis set group =>   4
Atom  51H    basis set group =>   4
Atom  52H    basis set group =>   4
Atom  53H    basis set group =>   4
Atom  54H    basis set group =>   4
Atom  55H    basis set group =>   4
Atom  56H    basis set group =>   4
Atom  57H    basis set group =>   4
Atom  58H    basis set group =>   4
Atom  59H    basis set group =>   4
Atom  60H    basis set group =>   4
Atom  61H    basis set group =>   4
Atom  62H    basis set group =>   4
Atom  63H    basis set group =>   4
Atom  64H    basis set group =>   4
Atom  65H    basis set group =>   4
Atom  66H    basis set group =>   4
Atom  67H    basis set group =>   4
Atom  68H    basis set group =>   4
Atom  69H    basis set group =>   4
Atom  70H    basis set group =>   4
Atom  71H    basis set group =>   4
Atom  72H    basis set group =>   4
---------------------------------
AUXILIARY/J BASIS SET INFORMATION
---------------------------------
There are 4 groups of distinct atoms

 Group   1 Type Ru  : 11s5p5d3f3g contracted to 8s5p5d2f3g pattern {41111111/11111/11111/21/111}
 Group   2 Type P   : 14s5p5d2f1g contracted to 8s4p3d1f1g pattern {71111111/2111/311/2/1}
 Group   3 Type C   : 12s5p4d2f1g contracted to 6s4p3d1f1g pattern {711111/2111/211/2/1}
 Group   4 Type H   : 5s2p1d contracted to 3s1p1d pattern {311/2/1}

Atom   0Ru   basis set group =>   1
Atom   1P    basis set group =>   2
Atom   2P    basis set group =>   2
Atom   3C    basis set group =>   3
Atom   4C    basis set group =>   3
Atom   5C    basis set group =>   3
Atom   6C    basis set group =>   3
Atom   7C    basis set group =>   3
Atom   8C    basis set group =>   3
Atom   9C    basis set group =>   3
Atom  10C    basis set group =>   3
Atom  11C    basis set group =>   3
Atom  12C    basis set group =>   3
Atom  13C    basis set group =>   3
Atom  14C    basis set group =>   3
Atom  15C    basis set group =>   3
Atom  16C    basis set group =>   3
Atom  17C    basis set group =>   3
Atom  18C    basis set group =>   3
Atom  19C    basis set group =>   3
Atom  20C    basis set group =>   3
Atom  21C    basis set group =>   3
Atom  22C    basis set group =>   3
Atom  23C    basis set group =>   3
Atom  24C    basis set group =>   3
Atom  25C    basis set group =>   3
Atom  26C    basis set group =>   3
Atom  27C    basis set group =>   3
Atom  28C    basis set group =>   3
Atom  29C    basis set group =>   3
Atom  30C    basis set group =>   3
Atom  31C    basis set group =>   3
Atom  32C    basis set group =>   3
Atom  33C    basis set group =>   3
Atom  34C    basis set group =>   3
Atom  35C    basis set group =>   3
Atom  36C    basis set group =>   3
Atom  37C    basis set group =>   3
Atom  38C    basis set group =>   3
Atom  39H    basis set group =>   4
Atom  40H    basis set group =>   4
Atom  41H    basis set group =>   4
Atom  42H    basis set group =>   4
Atom  43H    basis set group =>   4
Atom  44H    basis set group =>   4
Atom  45H    basis set group =>   4
Atom  46H    basis set group =>   4
Atom  47H    basis set group =>   4
Atom  48H    basis set group =>   4
Atom  49H    basis set group =>   4
Atom  50H    basis set group =>   4
Atom  51H    basis set group =>   4
Atom  52H    basis set group =>   4
Atom  53H    basis set group =>   4
Atom  54H    basis set group =>   4
Atom  55H    basis set group =>   4
Atom  56H    basis set group =>   4
Atom  57H    basis set group =>   4
Atom  58H    basis set group =>   4
Atom  59H    basis set group =>   4
Atom  60H    basis set group =>   4
Atom  61H    basis set group =>   4
Atom  62H    basis set group =>   4
Atom  63H    basis set group =>   4
Atom  64H    basis set group =>   4
Atom  65H    basis set group =>   4
Atom  66H    basis set group =>   4
Atom  67H    basis set group =>   4
Atom  68H    basis set group =>   4
Atom  69H    basis set group =>   4
Atom  70H    basis set group =>   4
Atom  71H    basis set group =>   4
Atom  72H    basis set group =>   4
-------------------------
ECP PARAMETER INFORMATION
-------------------------

 Group 1, Type Ru ECP Def2-ECP (replacing 28 core electrons, lmax=3)

Atom   0Ru   ECP group =>   1

------------------------------------------------------------------------------
                             ORCA STARTUP CALCULATIONS
                           -- RI-GTO INTEGRALS CHOSEN --
------------------------------------------------------------------------------
------------------------------------------------------------------------------
                   ___                                                        
                  /   \      - P O W E R E D   B Y -                         
                 /     \                                                     
                 |  |  |   _    _      __       _____    __    __             
                 |  |  |  | |  | |    /  \     |  _  \  |  |  /  |          
                  \  \/   | |  | |   /    \    | | | |  |  | /  /          
                 / \  \   | |__| |  /  /\  \   | |_| |  |  |/  /          
                |  |  |   |  __  | /  /__\  \  |    /   |      \           
                |  |  |   | |  | | |   __   |  |    \   |  |\   \          
                \     /   | |  | | |  |  |  |  | |\  \  |  | \   \       
                 \___/    |_|  |_| |__|  |__|  |_| \__\ |__|  \__/        
                                                                              
                      - O R C A' S   B I G   F R I E N D -                    
                                      &                                       
                       - I N T E G R A L  F E E D E R -                       
                                                                              
 v1 FN, 2020, v2 2021, v3 2022-2024                                           
------------------------------------------------------------------------------


----------------------
SHARK INTEGRAL PACKAGE
----------------------

Number of atoms                             ...     73
Number of basis functions                   ...   1434
Number of shells                            ...    572
Maximum angular momentum                    ...      3
Integral batch strategy                     ... SHARK/LIBINT Hybrid
RI-J (if used) integral strategy            ... SPLIT-RIJ (Revised 2003 algorithm where possible)
Printlevel                                  ...      1
Contraction scheme used                     ... SEGMENTED contraction
Prescreening option                         ... SCHWARTZ
   Thresh                                   ... 1.000e-12
   Tcut                                     ... 1.000e-14
   Tpresel                                  ... 1.000e-14 
Coulomb Range Separation                    ... NOT USED
Exchange Range Separation                   ... NOT USED
Multipole approximations                    ... NOT USED
Finite Nucleus Model                        ... NOT USED
CABS basis                                  ... NOT available
Auxiliary Coulomb fitting basis             ... AVAILABLE
   # of basis functions in Aux-J            ...   2329
   # of shells in Aux-J                     ...    767
   Maximum angular momentum in Aux-J        ...      4
Auxiliary J/K fitting basis                 ... NOT available
Auxiliary Correlation fitting basis         ... NOT available
Auxiliary 'external' fitting basis          ... NOT available

Checking pre-screening integrals            ... done (  0.0 sec) Dimension = 572
   => SHARK Basis and OBASIS are compatible. Storing Pre-screening
Shell pair information
Shell pair cut-off parameter TPreSel        ...   1.0e-14
Total number of shell pairs                 ...    163878
Shell pairs after pre-screening             ...     99817
Total number of primitive shell pairs       ...    499477
Primitive shell pairs kept                  ...    191650
          la=0 lb=0:  26515 shell pairs
          la=1 lb=0:  30091 shell pairs
          la=1 lb=1:   8520 shell pairs
          la=2 lb=0:  13629 shell pairs
          la=2 lb=1:   7800 shell pairs
          la=2 lb=2:   1751 shell pairs
          la=3 lb=0:   6101 shell pairs
          la=3 lb=1:   3544 shell pairs
          la=3 lb=2:   1523 shell pairs
          la=3 lb=3:    343 shell pairs

Checking whether 4 symmetric matrices of dimension 1434 fit in memory
:Max Core in MB      =   4096.00
 MB in use           =    121.06
 MB left             =   3974.94
 MB needed           =     31.40
 Data fit in memory  = YES
Calculating RI/J V-Matrix + Cholesky decomp.... done (  0.2 sec)
Calculating Nuclear repulsion               ... done (  0.0 sec) ENN=   4820.547114648989 Eh

Diagonalization of the overlap matrix:
Smallest eigenvalue                        ... 6.185e-06
Time for diagonalization                   ...    0.255 sec
Threshold for overlap eigenvalues          ... 1.000e-07
Number of eigenvalues below threshold      ... 0
Time for construction of square roots      ...    0.146 sec
Total time needed                          ...    0.404 sec

-------------------
DFT GRID GENERATION
-------------------

General Integration Accuracy     IntAcc      ... 4.959
Radial Grid Type                 RadialGrid  ... OptM3 with GC (2021)
Angular Grid (max. ang.)         AngularGrid ... 6 (Lebedev-590)
Angular grid pruning method      GridPruning ... 4 (adaptive)
Weight generation scheme         WeightScheme... mBecke (2022)
Basis function cutoff            BFCut       ... 1.0000e-12
Integration weight cutoff        WCut        ... 1.0000e-14
Partially contracted basis set               ... off
Rotationally invariant grid construction     ... off
Angular grids for H and He will be reduced by one unit

Total number of grid points                  ...   843040
Total number of batches                      ...    13208
Average number of points per batch           ...       63
Average number of grid points per atom       ...    11548
Grids setup in  15.0 sec
Initializing property integral containers    ... done (  0.0 sec)

SHARK setup successfully completed in  18.7 seconds

Maximum memory used throughout the entire STARTUP-calculation: 488.7 MB
-------------------------------------------------------------------------------
                                 ORCA GUESS
                   Start orbitals & Density for SCF / CASSCF
-------------------------------------------------------------------------------

------------
SCF SETTINGS
------------
Hamiltonian:
 Density Functional     Method          .... DFT(GTOs)
 Exchange Functional    Exchange        .... B88
   X-Alpha parameter    XAlpha          ....  0.666667
   Becke's b parameter  XBeta           ....  0.004200
 Correlation Functional Correlation     .... P86
 LDA part of GGA corr.  LDAOpt          .... PW91-LDA
 Gradients option       PostSCFGGA      .... off
   NL short-range parameter             ....  4.400000
 RI-approximation to the Coulomb term is turned on
   Number of AuxJ basis functions       .... 2329


General Settings:
 Integral files         IntName         .... 15h_def2tzvp
 Hartree-Fock type      HFTyp           .... RHF
 Total Charge           Charge          ....    0
 Multiplicity           Mult            ....    1
 Number of Electrons    NEL             ....  296
 Basis Dimension        Dim             .... 1434
 Nuclear Repulsion      ENuc            ....   4820.5471146490 Eh

Convergence Acceleration:
 AO-DIIS                CNVDIIS         .... on
   Start iteration      DIISMaxIt       ....    12
   Startup error        DIISStart       ....  0.200000
   # of expansion vecs  DIISMaxEq       ....     5
   Bias factor          DIISBfac        ....   1.050
   Max. coefficient     DIISMaxC        ....  10.000
 MO-DIIS                CNVKDIIS        .... off
 Trust-Rad. Augm. Hess. CNVTRAH         .... auto
   Auto Start mean grad. ratio tolernc. ....  1.125000
   Auto Start start iteration           ....    50
   Auto Start num. interpolation iter.  ....    10
   Max. Number of Micro iterations      ....    24
   Max. Number of Macro iterations      .... Maxiter - #DIIS iter
   Number of Davidson start vectors     ....     2
   Converg. threshold    (grad. norm)   ....   2.000e-06
   Grad. Scal. Fac. for Micro threshold ....   0.100
   Minimum threshold for Micro iter.    ....   1.000e-02
   NR start threshold (gradient norm)   ....   1.000e-04
   Initial trust radius                 ....   0.400
   Minimum AH scaling param. (alpha)    ....   1.000
   Maximum AH scaling param. (alpha)    .... 1000.000
   Quad. conv. algorithm                .... NR
   White noise on init. David. guess    .... on
   Maximum white noise                  ....   0.010
   Pseudo random numbers                .... off
   Inactive MOs                         .... canonical
   Orbital update algorithm             .... Taylor
   Preconditioner                       .... Diag
   Full preconditioner red. dimension   ....   250
 SOSCF                 CNVSOSCF           .... on
   Start iteration     SOSCFMaxIt         ....   150
   Startup grad/error  SOSCFStart         ....  0.003300
   Hessian update      SOSCFHessUp        .... L-BFGS
   Autom. constraints  SOSCFAutoConstrain .... off
 Level Shifting         CNVShift        .... on
   Level shift para.    LevelShift      ....    0.2500
   Turn off err/grad.   ShiftErr        ....    0.0010
 Zerner damping         CNVZerner       .... off
 Static damping         CNVDamp         .... on
   Fraction old density DampFac         ....    0.7000
   Max. Damping (<1)    DampMax         ....    0.9800
   Min. Damping (>=0)   DampMin         ....    0.0000
   Turn off err/grad.   DampErr         ....    0.1000

SCF Procedure:
 Maximum # iterations   MaxIter         ....   125
 SCF integral mode      SCFMode         .... Direct
   Integral package                     .... SHARK and LIBINT hybrid scheme
 Reset frequency        DirectResetFreq ....    20
 Integral Threshold     Thresh          ....  1.000e-12 Eh
 Primitive CutOff       TCut            ....  1.000e-14 Eh

Convergence Tolerance:
 Convergence Check Mode ConvCheckMode   .... Total+1el-Energy
 Convergence forced     ConvForced      .... 0
 Energy Change          TolE            ....  1.000e-09 Eh
 1-El. energy change                    ....  1.000e-06 Eh
 Orbital Gradient       TolG            ....  2.000e-06
 Orbital Rotation angle TolX            ....  2.000e-06
 DIIS Error             TolErr          ....  1.000e-08

------------------------------
INITIAL GUESS: MODEL POTENTIAL
------------------------------
Loading Hartree-Fock densities                     ... done
Atomic calculation to generate a density for atom 0 (Ru with ECP)
  Multiplicity assumed   :    5
  Atomic configuration   : 1s2 2s2 2p6 3s2 3p6 4s2 3d10 4p6 5s2 4d6 
  Number of open shells  : 1
  Command: /cluster/projects/nn14654k/ylvaos/orca_6_1_1_linux_x86-64_shared_openmpi418/orca 15h_def2tzvp_atom44.inp "" > 15h_def2tzvp_atom44.out
Returned from the atomic calculation with res=0
Calculating cut-offs                               ... done
Initializing the effective Hamiltonian             ... done
Setting up the integral package (SHARK)            ... done
Starting the Coulomb interaction                   ... done (   8.0 sec)
Making the grid                                    ... done (   1.5 sec)
Mapping shells                                     ... done
Starting the XC term evaluation                    ... done (   3.0 sec)
  promolecular density results
     # of electrons  =    323.974471896
     EX              =   -369.811842044
     EC              =    -12.996460028
     EX+EC           =   -382.808302073
Transforming the Hamiltonian                       ... done (   0.1 sec)
Diagonalizing the Hamiltonian                      ... done (   0.2 sec)
Back transforming the eigenvectors                 ... done (   0.1 sec)
Now organizing SCF variables                       ... done
                      ------------------
                      INITIAL GUESS DONE (  14.6 sec)
                      ------------------
             **** ENERGY FILE WAS UPDATED (15h_def2tzvp.en.tmp) ****
Finished Guess after  14.9 sec
Maximum memory used throughout the entire GUESS-calculation: 302.9 MB

-------------------------------------------------------------------------------------------
                                      ORCA LEAN-SCF
                              memory conserving SCF solver
-------------------------------------------------------------------------------------------

----------------------------------------D-I-I-S--------------------------------------------
Iteration    Energy (Eh)           Delta-E    RMSDP     MaxDP     DIISErr   Damp  Time(sec)
-------------------------------------------------------------------------------------------
               ***  Starting incremental Fock matrix formation  ***
    1    -2169.8819585152996297     0.00e+00  8.28e-04  6.23e-02  4.58e-01  0.700  46.1
Warning: op=0 Small HOMO/LUMO gap (   0.082) - skipping pre-diagonalization
         Will do a full diagonalization
    2    -2170.2528981542945985    -3.71e-01  6.46e-04  3.43e-02  3.13e-01  0.700  40.5
    3    -2170.3914756237709298    -1.39e-01  3.45e-04  2.11e-02  2.16e-01  0.700  38.8
                               ***Turning on AO-DIIS***
    4    -2170.4674454896867246    -7.60e-02  1.96e-04  1.71e-02  1.51e-01  0.700  50.7
    5    -2170.5237358292533827    -5.63e-02  1.31e-04  1.52e-02  1.05e-01  0.700  36.1
    6    -2170.5634232819847966    -3.97e-02  9.52e-05  1.18e-02  7.42e-02  0.700  34.9
    7    -2170.5910925199168560    -2.77e-02  2.31e-04  2.84e-02  5.17e-02  0.000  33.5
                              *** Initializing SOSCF ***
---------------------------------------S-O-S-C-F--------------------------------------
Iteration    Energy (Eh)           Delta-E    RMSDP     MaxDP     MaxGrad    Time(sec)
--------------------------------------------------------------------------------------
    8    -2170.6552897923402270    -6.42e-02  2.15e-05  1.07e-03  7.90e-04    52.6
               *** Restarting incremental Fock matrix formation ***
    9    -2170.6553109540955120    -2.12e-05  1.39e-05  1.26e-03  1.81e-04    46.3
   10    -2170.6552979217030952     1.30e-05  1.29e-05  1.30e-03  6.23e-04    31.2
   11    -2170.6553110769700652    -1.32e-05  1.39e-05  1.38e-03  3.07e-04    29.6
   12    -2170.6552957313715524     1.53e-05  9.67e-06  1.02e-03  3.24e-04    31.2
   13    -2170.6553150791251028    -1.93e-05  3.96e-06  3.46e-04  6.14e-05    31.1
   14    -2170.6553122766654269     2.80e-06  2.77e-06  2.21e-04  1.47e-04    39.2
   15    -2170.6553155940828219    -3.32e-06  9.50e-07  1.33e-04  1.61e-05    38.5
   16    -2170.6553154467974309     1.47e-07  6.79e-07  9.05e-05  4.39e-05    26.5
   17    -2170.6553156187246714    -1.72e-07  3.58e-07  2.97e-05  3.87e-06    26.4
   18    -2170.6553156090503762     9.67e-09  2.29e-07  1.81e-05  7.91e-06    38.9
   19    -2170.6553156217423748    -1.27e-08  1.43e-07  1.86e-05  1.06e-06    26.2
   20    -2170.6553156186537308     3.09e-09  8.54e-08  9.52e-06  2.84e-06    24.4
   21    -2170.6553156205627602    -1.91e-09  1.36e-07  1.19e-05  5.79e-07    25.8
   22    -2170.6553156228192165    -2.26e-09  8.51e-08  1.15e-05  1.32e-06    25.1
   23    -2170.6553156206409767     2.18e-09  1.62e-07  2.27e-05  1.93e-07    22.5
                  *** Gradient check signals convergence ***

               *****************************************************
               *                     SUCCESS                       *
               *           SCF CONVERGED AFTER  23 CYCLES          *
               *****************************************************

             **** ENERGY FILE WAS UPDATED (15h_def2tzvp.en.tmp) ****

----------------
TOTAL SCF ENERGY
----------------

Total Energy       :      -2170.65531561808530 Eh          -59066.53402 eV

Components:
Nuclear Repulsion  :       4820.54711464898901 Eh          131173.75573 eV
Electronic Energy  :      -6991.20243026707431 Eh         -190240.28976 eV
One Electron Energy:     -12593.57559990671689 Eh         -342688.61403 eV
Two Electron Energy:       5602.37316963964258 Eh          152448.32427 eV

Virial components:
Potential Energy   :      -4272.05892644531195 Eh         -116248.63335 eV
Kinetic Energy     :       2101.40361082722620 Eh           57182.09933 eV
Virial Ratio       :          2.03295497563345

DFT components:
N(Alpha)           :      148.000004350845 electrons
N(Beta)            :      148.000004350845 electrons
N(Total)           :      296.000008701690 electrons
E(X)               :     -254.075264773980 Eh       
E(C)               :      -11.075171630884 Eh       
E(XC)              :     -265.150436404864 Eh       

---------------
SCF CONVERGENCE
---------------

  Last Energy change         ...   -2.1782e-09  Tolerance :   1.0000e-09
  Last MAX-Density change    ...    2.2717e-05  Tolerance :   1.0000e-08
  Last RMS-Density change    ...    1.6238e-07  Tolerance :   1.0000e-09
  Last DIIS Error            ...    7.9017e-04  Tolerance :   1.0000e-08
  Last Orbital Gradient      ...    1.9328e-07  Tolerance :   2.0000e-06
  Last Orbital Rotation      ...    5.7915e-07  Tolerance :   2.0000e-06


----------------
ORBITAL ENERGIES
----------------

  NO   OCC          E(Eh)            E(eV) 
   0   2.0000     -76.360274     -2077.8687 
   1   2.0000     -76.360104     -2077.8641 
   2   2.0000      -9.910746      -269.6851 
   3   2.0000      -9.910475      -269.6777 
   4   2.0000      -9.908827      -269.6329 
   5   2.0000      -9.908650      -269.6281 
   6   2.0000      -9.907202      -269.5887 
   7   2.0000      -9.906420      -269.5674 
   8   2.0000      -9.906005      -269.5561 
   9   2.0000      -9.905982      -269.5555 
  10   2.0000      -9.905605      -269.5452 
  11   2.0000      -9.905409      -269.5399 
  12   2.0000      -9.905265      -269.5360 
  13   2.0000      -9.905067      -269.5306 
  14   2.0000      -9.905013      -269.5291 
  15   2.0000      -9.904973      -269.5280 
  16   2.0000      -9.904895      -269.5259 
  17   2.0000      -9.904682      -269.5201 
  18   2.0000      -9.904542      -269.5163 
  19   2.0000      -9.904442      -269.5136 
  20   2.0000      -9.904296      -269.5096 
  21   2.0000      -9.904253      -269.5084 
  22   2.0000      -9.904146      -269.5055 
  23   2.0000      -9.904089      -269.5040 
  24   2.0000      -9.904074      -269.5036 
  25   2.0000      -9.904061      -269.5032 
  26   2.0000      -9.904055      -269.5030 
  27   2.0000      -9.904031      -269.5024 
  28   2.0000      -9.903734      -269.4943 
  29   2.0000      -9.903684      -269.4929 
  30   2.0000      -9.903426      -269.4859 
  31   2.0000      -9.903325      -269.4832 
  32   2.0000      -9.902978      -269.4737 
  33   2.0000      -9.902958      -269.4732 
  34   2.0000      -9.902858      -269.4705 
  35   2.0000      -9.901644      -269.4374 
  36   2.0000      -9.901511      -269.4338 
  37   2.0000      -9.899727      -269.3853 
  38   2.0000      -6.318237      -171.9280 
  39   2.0000      -6.318076      -171.9236 
  40   2.0000      -4.534308      -123.3848 
  41   2.0000      -4.534153      -123.3806 
  42   2.0000      -4.534134      -123.3801 
  43   2.0000      -4.533947      -123.3750 
  44   2.0000      -4.531489      -123.3081 
  45   2.0000      -4.531338      -123.3040 
  46   2.0000      -2.831006       -77.0356 
  47   2.0000      -1.717664       -46.7400 
  48   2.0000      -1.713330       -46.6221 
  49   2.0000      -1.711950       -46.5845 
  50   2.0000      -0.789864       -21.4933 
  51   2.0000      -0.789386       -21.4803 
  52   2.0000      -0.781951       -21.2780 
  53   2.0000      -0.781689       -21.2708 
  54   2.0000      -0.780982       -21.2516 
  55   2.0000      -0.780296       -21.2329 
  56   2.0000      -0.707807       -19.2604 
  57   2.0000      -0.706977       -19.2378 
  58   2.0000      -0.682099       -18.5609 
  59   2.0000      -0.681839       -18.5538 
  60   2.0000      -0.680811       -18.5258 
  61   2.0000      -0.680579       -18.5195 
  62   2.0000      -0.679401       -18.4874 
  63   2.0000      -0.678423       -18.4608 
  64   2.0000      -0.676285       -18.4026 
  65   2.0000      -0.676095       -18.3975 
  66   2.0000      -0.675189       -18.3728 
  67   2.0000      -0.674603       -18.3569 
  68   2.0000      -0.595980       -16.2175 
  69   2.0000      -0.593518       -16.1504 
  70   2.0000      -0.553436       -15.0597 
  71   2.0000      -0.552991       -15.0477 
  72   2.0000      -0.550639       -14.9836 
  73   2.0000      -0.549909       -14.9638 
  74   2.0000      -0.549735       -14.9591 
  75   2.0000      -0.547794       -14.9062 
  76   2.0000      -0.540436       -14.7060 
  77   2.0000      -0.540062       -14.6958 
  78   2.0000      -0.539031       -14.6678 
  79   2.0000      -0.538195       -14.6450 
  80   2.0000      -0.509555       -13.8657 
  81   2.0000      -0.506912       -13.7938 
  82   2.0000      -0.471321       -12.8253 
  83   2.0000      -0.470456       -12.8018 
  84   2.0000      -0.470008       -12.7896 
  85   2.0000      -0.468758       -12.7556 
  86   2.0000      -0.450388       -12.2557 
  87   2.0000      -0.447390       -12.1741 
  88   2.0000      -0.425922       -11.5899 
  89   2.0000      -0.413028       -11.2391 
  90   2.0000      -0.412905       -11.2357 
  91   2.0000      -0.410732       -11.1766 
  92   2.0000      -0.410279       -11.1643 
  93   2.0000      -0.409295       -11.1375 
  94   2.0000      -0.409031       -11.1303 
  95   2.0000      -0.403611       -10.9828 
  96   2.0000      -0.402994       -10.9660 
  97   2.0000      -0.402745       -10.9592 
  98   2.0000      -0.401615       -10.9285 
  99   2.0000      -0.396626       -10.7927 
 100   2.0000      -0.395525       -10.7628 
 101   2.0000      -0.380558       -10.3555 
 102   2.0000      -0.378238       -10.2924 
 103   2.0000      -0.378107       -10.2888 
 104   2.0000      -0.377767       -10.2796 
 105   2.0000      -0.377691       -10.2775 
 106   2.0000      -0.375435       -10.2161 
 107   2.0000      -0.369909       -10.0657 
 108   2.0000      -0.369159       -10.0453 
 109   2.0000      -0.366928        -9.9846 
 110   2.0000      -0.365094        -9.9347 
 111   2.0000      -0.344921        -9.3858 
 112   2.0000      -0.338905        -9.2221 
 113   2.0000      -0.337282        -9.1779 
 114   2.0000      -0.336361        -9.1529 
 115   2.0000      -0.333131        -9.0650 
 116   2.0000      -0.331914        -9.0318 
 117   2.0000      -0.329344        -8.9619 
 118   2.0000      -0.325730        -8.8636 
 119   2.0000      -0.309159        -8.4126 
 120   2.0000      -0.307267        -8.3611 
 121   2.0000      -0.307050        -8.3553 
 122   2.0000      -0.305742        -8.3197 
 123   2.0000      -0.305239        -8.3060 
 124   2.0000      -0.303287        -8.2529 
 125   2.0000      -0.299040        -8.1373 
 126   2.0000      -0.292421        -7.9572 
 127   2.0000      -0.292147        -7.9497 
 128   2.0000      -0.289812        -7.8862 
 129   2.0000      -0.288685        -7.8555 
 130   2.0000      -0.274346        -7.4653 
 131   2.0000      -0.258737        -7.0406 
 132   2.0000      -0.244393        -6.6503 
 133   2.0000      -0.243117        -6.6156 
 134   2.0000      -0.242416        -6.5965 
 135   2.0000      -0.240159        -6.5350 
 136   2.0000      -0.238865        -6.4998 
 137   2.0000      -0.236473        -6.4348 
 138   2.0000      -0.235204        -6.4002 
 139   2.0000      -0.232706        -6.3323 
 140   2.0000      -0.231595        -6.3020 
 141   2.0000      -0.230202        -6.2641 
 142   2.0000      -0.228530        -6.2186 
 143   2.0000      -0.222855        -6.0642 
 144   2.0000      -0.208435        -5.6718 
 145   2.0000      -0.184305        -5.0152 
 146   2.0000      -0.176874        -4.8130 
 147   2.0000      -0.171358        -4.6629 
 148   0.0000      -0.082486        -2.2446 
 149   0.0000      -0.064984        -1.7683 
 150   0.0000      -0.061643        -1.6774 
 151   0.0000      -0.058856        -1.6016 
 152   0.0000      -0.058552        -1.5933 
 153   0.0000      -0.056147        -1.5278 
 154   0.0000      -0.053651        -1.4599 
 155   0.0000      -0.051050        -1.3891 
 156   0.0000      -0.046524        -1.2660 
 157   0.0000      -0.041403        -1.1266 
 158   0.0000      -0.040454        -1.1008 
*Only the first 10 virtual orbitals were printed.

                    ********************************
                    * MULLIKEN POPULATION ANALYSIS *
                    ********************************

-----------------------
MULLIKEN ATOMIC CHARGES
-----------------------
   0 Ru:   -0.489461
   1 P :    0.424806
   2 P :    0.439128
   3 C :    0.007347
   4 C :   -0.095354
   5 C :   -0.114017
   6 C :   -0.238382
   7 C :   -0.060639
   8 C :   -0.076756
   9 C :   -0.153042
  10 C :   -0.086741
  11 C :   -0.113925
  12 C :   -0.140409
  13 C :   -0.030500
  14 C :   -0.118551
  15 C :   -0.110211
  16 C :   -0.145869
  17 C :   -0.084341
  18 C :   -0.125963
  19 C :   -0.143056
  20 C :    0.015754
  21 C :   -0.222022
  22 C :   -0.121071
  23 C :   -0.092214
  24 C :   -0.148282
  25 C :   -0.146224
  26 C :   -0.109376
  27 C :   -0.041385
  28 C :   -0.136041
  29 C :   -0.150150
  30 C :   -0.080398
  31 C :   -0.144463
  32 C :   -0.120126
  33 C :   -0.087758
  34 C :   -0.134678
  35 C :   -0.162682
  36 C :    0.061646
  37 C :   -0.124130
  38 C :   -0.149460
  39 H :    0.123387
  40 H :    0.103960
  41 H :    0.107698
  42 H :    0.107276
  43 H :    0.135189
  44 H :    0.133876
  45 H :    0.107329
  46 H :    0.107659
  47 H :    0.106184
  48 H :    0.155527
  49 H :    0.156290
  50 H :    0.116775
  51 H :    0.105519
  52 H :    0.108239
  53 H :    0.107847
  54 H :    0.147030
  55 H :    0.106852
  56 H :    0.107917
  57 H :    0.105344
  58 H :    0.120758
  59 H :    0.128920
  60 H :    0.156987
  61 H :    0.106201
  62 H :    0.107089
  63 H :    0.108114
  64 H :    0.152347
  65 H :    0.138669
  66 H :    0.105757
  67 H :    0.108350
  68 H :    0.107260
  69 H :   -0.027732
  70 H :    0.084353
  71 H :   -0.006650
  72 H :   -0.091320
Sum of atomic charges:   -0.0000000

--------------------------------
MULLIKEN REDUCED ORBITAL CHARGES
--------------------------------
  0 Rus       :     2.641671  s :     2.641671
      pz      :     2.125996  p :     6.545932
      px      :     2.227599
      py      :     2.192337
      dz2     :     1.367134  d :     7.295483
      dxz     :     1.759168
      dyz     :     1.253770
      dx2y2   :     1.172765
      dxy     :     1.742645
      f0      :     0.000675  f :     0.006375
      f+1     :     0.000719
      f-1     :     0.001256
      f+2     :     0.001723
      f-2     :     0.000013
      f+3     :     0.001131
      f-3     :     0.000859

  1 P s       :     5.501058  s :     5.501058
      pz      :     2.817062  p :     8.585799
      px      :     2.981038
      py      :     2.787699
      dz2     :     0.082172  d :     0.448793
      dxz     :     0.102494
      dyz     :     0.088364
      dx2y2   :     0.070689
      dxy     :     0.105074
      f0      :     0.005534  f :     0.039544
      f+1     :     0.005884
      f-1     :     0.004864
      f+2     :     0.005403
      f-2     :     0.006288
      f+3     :     0.005171
      f-3     :     0.006400

  2 P s       :     5.517829  s :     5.517829
      pz      :     2.809540  p :     8.554818
      px      :     2.989021
      py      :     2.756258
      dz2     :     0.085909  d :     0.448959
      dxz     :     0.099601
      dyz     :     0.081270
      dx2y2   :     0.070753
      dxy     :     0.111426
      f0      :     0.005449  f :     0.039266
      f+1     :     0.005901
      f-1     :     0.005060
      f+2     :     0.005015
      f-2     :     0.006033
      f+3     :     0.005231
      f-3     :     0.006577

  3 C s       :     3.229458  s :     3.229458
      pz      :     0.880601  p :     2.638242
      px      :     0.830858
      py      :     0.926784
      dz2     :     0.027100  d :     0.117152
      dxz     :     0.031864
      dyz     :     0.020550
      dx2y2   :     0.021584
      dxy     :     0.016053
      f0      :     0.001697  f :     0.007801
      f+1     :     0.000963
      f-1     :     0.000882
      f+2     :     0.000888
      f-2     :     0.001287
      f+3     :     0.001513
      f-3     :     0.000570

  4 C s       :     3.212916  s :     3.212916
      pz      :     0.946250  p :     2.798546
      px      :     0.941838
      py      :     0.910458
      dz2     :     0.011816  d :     0.077123
      dxz     :     0.007125
      dyz     :     0.022920
      dx2y2   :     0.014190
      dxy     :     0.021071
      f0      :     0.000912  f :     0.006769
      f+1     :     0.000961
      f-1     :     0.000473
      f+2     :     0.001627
      f-2     :     0.000752
      f+3     :     0.001431
      f-3     :     0.000614

  5 C s       :     3.225074  s :     3.225074
      pz      :     0.926898  p :     2.804712
      px      :     0.932908
      py      :     0.944906
      dz2     :     0.022371  d :     0.077465
      dxz     :     0.013625
      dyz     :     0.011767
      dx2y2   :     0.019329
      dxy     :     0.010373
      f0      :     0.000670  f :     0.006766
      f+1     :     0.001130
      f-1     :     0.001020
      f+2     :     0.001611
      f-2     :     0.000772
      f+3     :     0.000700
      f-3     :     0.000863

  6 C s       :     3.263408  s :     3.263408
      pz      :     0.936044  p :     2.881205
      px      :     1.020890
      py      :     0.924271
      dz2     :     0.013318  d :     0.086734
      dxz     :     0.009768
      dyz     :     0.023748
      dx2y2   :     0.018281
      dxy     :     0.021618
      f0      :     0.000905  f :     0.007035
      f+1     :     0.000855
      f-1     :     0.000681
      f+2     :     0.001772
      f-2     :     0.000675
      f+3     :     0.001311
      f-3     :     0.000837

  7 C s       :     3.264449  s :     3.264449
      pz      :     0.947846  p :     2.668010
      px      :     0.858847
      py      :     0.861317
      dz2     :     0.014957  d :     0.120311
      dxz     :     0.021820
      dyz     :     0.015047
      dx2y2   :     0.037231
      dxy     :     0.031257
      f0      :     0.000586  f :     0.007869
      f+1     :     0.001253
      f-1     :     0.000978
      f+2     :     0.001151
      f-2     :     0.000824
      f+3     :     0.001211
      f-3     :     0.001865

  8 C s       :     3.200841  s :     3.200841
      pz      :     0.932371  p :     2.781163
      px      :     0.920225
      py      :     0.928567
      dz2     :     0.008865  d :     0.087731
      dxz     :     0.008286
      dyz     :     0.020708
      dx2y2   :     0.030596
      dxy     :     0.019276
      f0      :     0.000755  f :     0.007021
      f+1     :     0.000739
      f-1     :     0.000982
      f+2     :     0.000911
      f-2     :     0.000855
      f+3     :     0.000918
      f-3     :     0.001861

  9 C s       :     3.254778  s :     3.254778
      pz      :     0.958468  p :     2.814720
      px      :     0.916037
      py      :     0.940214
      dz2     :     0.006720  d :     0.076842
      dxz     :     0.012940
      dyz     :     0.013523
      dx2y2   :     0.018355
      dxy     :     0.025303
      f0      :     0.000850  f :     0.006703
      f+1     :     0.000995
      f-1     :     0.000449
      f+2     :     0.000871
      f-2     :     0.000870
      f+3     :     0.001056
      f-3     :     0.001611

 10 C s       :     3.207794  s :     3.207794
      pz      :     0.945292  p :     2.794939
      px      :     0.912825
      py      :     0.936822
      dz2     :     0.012163  d :     0.077235
      dxz     :     0.017039
      dyz     :     0.007029
      dx2y2   :     0.020374
      dxy     :     0.020630
      f0      :     0.000484  f :     0.006773
      f+1     :     0.001186
      f-1     :     0.000973
      f+2     :     0.000897
      f-2     :     0.000717
      f+3     :     0.001166
      f-3     :     0.001349

 11 C s       :     3.222663  s :     3.222663
      pz      :     0.947707  p :     2.807555
      px      :     0.958241
      py      :     0.901607
      dz2     :     0.009495  d :     0.076959
      dxz     :     0.006407
      dyz     :     0.019346
      dx2y2   :     0.023794
      dxy     :     0.017917
      f0      :     0.000743  f :     0.006748
      f+1     :     0.000759
      f-1     :     0.000930
      f+2     :     0.000889
      f-2     :     0.000851
      f+3     :     0.000920
      f-3     :     0.001657

 12 C s       :     3.238003  s :     3.238003
      pz      :     0.969183  p :     2.806996
      px      :     0.886915
      py      :     0.950898
      dz2     :     0.007589  d :     0.088522
      dxz     :     0.013491
      dyz     :     0.016364
      dx2y2   :     0.019289
      dxy     :     0.031790
      f0      :     0.000852  f :     0.006888
      f+1     :     0.000947
      f-1     :     0.000480
      f+2     :     0.000879
      f-2     :     0.000927
      f+3     :     0.001121
      f-3     :     0.001681

 13 C s       :     3.254200  s :     3.254200
      pz      :     0.916004  p :     2.649554
      px      :     0.862962
      py      :     0.870588
      dz2     :     0.023935  d :     0.118866
      dxz     :     0.021745
      dyz     :     0.016848
      dx2y2   :     0.030402
      dxy     :     0.025937
      f0      :     0.000597  f :     0.007880
      f+1     :     0.001380
      f-1     :     0.000967
      f+2     :     0.001454
      f-2     :     0.001187
      f+3     :     0.001106
      f-3     :     0.001190

 14 C s       :     3.215132  s :     3.215132
      pz      :     0.921607  p :     2.808777
      px      :     0.945272
      py      :     0.941898
      dz2     :     0.030021  d :     0.087614
      dxz     :     0.021421
      dyz     :     0.021278
      dx2y2   :     0.005654
      dxy     :     0.009240
      f0      :     0.001812  f :     0.007028
      f+1     :     0.001146
      f-1     :     0.001101
      f+2     :     0.000994
      f-2     :     0.000946
[...]
      pz      :     0.022012  p :     0.057278
      px      :     0.016031
      py      :     0.019235

 58 H s       :     0.786831  s :     0.786831
      pz      :     0.016388  p :     0.060908
      px      :     0.030243
      py      :     0.014276

 59 H s       :     0.788685  s :     0.788685
      pz      :     0.019064  p :     0.059337
      px      :     0.027035
      py      :     0.013238

 60 H s       :     0.781319  s :     0.781319
      pz      :     0.012516  p :     0.060719
      px      :     0.012874
      py      :     0.035330

 61 H s       :     0.796499  s :     0.796499
      pz      :     0.018628  p :     0.057328
      px      :     0.025082
      py      :     0.013618

 62 H s       :     0.796552  s :     0.796552
      pz      :     0.012208  p :     0.057299
      px      :     0.012958
      py      :     0.032133

 63 H s       :     0.797411  s :     0.797411
      pz      :     0.019332  p :     0.057287
      px      :     0.018233
      py      :     0.019722

 64 H s       :     0.781742  s :     0.781742
      pz      :     0.026628  p :     0.060408
      px      :     0.017361
      py      :     0.016419

 65 H s       :     0.783900  s :     0.783900
      pz      :     0.012117  p :     0.061008
      px      :     0.027519
      py      :     0.021372

 66 H s       :     0.796581  s :     0.796581
      pz      :     0.023936  p :     0.057253
      px      :     0.017174
      py      :     0.016143

 67 H s       :     0.797382  s :     0.797382
      pz      :     0.030700  p :     0.057289
      px      :     0.013551
      py      :     0.013038

 68 H s       :     0.796460  s :     0.796460
      pz      :     0.011408  p :     0.057330
      px      :     0.025503
      py      :     0.020419

 69 H s       :     0.858894  s :     0.858894
      pz      :     0.030828  p :     0.058131
      px      :     0.010809
      py      :     0.016495

 70 H s       :     0.814082  s :     0.814082
      pz      :     0.024087  p :     0.064970
      px      :     0.011078
      py      :     0.029804

 71 H s       :     0.885970  s :     0.885970
      pz      :     0.017459  p :     0.050282
      px      :     0.016645
      py      :     0.016178

 72 H s       :     0.979182  s :     0.979182
      pz      :     0.009006  p :     0.031206
      px      :     0.010882
      py      :     0.011318



                      *****************************
                      * MAYER POPULATION ANALYSIS *
                      *****************************

  NA   - Mulliken gross atomic population
  ZA   - Total nuclear charge
  QA   - Mulliken gross atomic charge
  VA   - Mayer's total valence
  BVA  - Mayer's bonded valence
  FA   - Mayer's free valence

  ATOM       NA         ZA         QA         VA         BVA        FA
  0 Ru    16.4895    16.0000    -0.4895     4.9536     4.9536    -0.0000
  1 P     14.5752    15.0000     0.4248     4.1389     4.1389    -0.0000
  2 P     14.5609    15.0000     0.4391     4.0949     4.0949    -0.0000
  3 C      5.9927     6.0000     0.0073     3.8513     3.8513    -0.0000
  4 C      6.0954     6.0000    -0.0954     3.8823     3.8823     0.0000
  5 C      6.1140     6.0000    -0.1140     3.9134     3.9134    -0.0000
  6 C      6.2384     6.0000    -0.2384     3.9485     3.9485     0.0000
  7 C      6.0606     6.0000    -0.0606     3.8401     3.8401    -0.0000
  8 C      6.0768     6.0000    -0.0768     3.8649     3.8649    -0.0000
  9 C      6.1530     6.0000    -0.1530     3.9448     3.9448    -0.0000
 10 C      6.0867     6.0000    -0.0867     3.8578     3.8578    -0.0000
 11 C      6.1139     6.0000    -0.1139     3.8895     3.8895    -0.0000
 12 C      6.1404     6.0000    -0.1404     3.8260     3.8260    -0.0000
 13 C      6.0305     6.0000    -0.0305     3.8389     3.8389    -0.0000
 14 C      6.1186     6.0000    -0.1186     3.8890     3.8890     0.0000
 15 C      6.1102     6.0000    -0.1102     3.9228     3.9228    -0.0000
 16 C      6.1459     6.0000    -0.1459     3.9426     3.9426    -0.0000
 17 C      6.0843     6.0000    -0.0843     3.8603     3.8603    -0.0000
 18 C      6.1260     6.0000    -0.1260     3.9088     3.9088    -0.0000
 19 C      6.1431     6.0000    -0.1431     3.8397     3.8397    -0.0000
 20 C      5.9842     6.0000     0.0158     3.7404     3.7404     0.0000
 21 C      6.2220     6.0000    -0.2220     3.9497     3.9497     0.0000
 22 C      6.1211     6.0000    -0.1211     3.9290     3.9290    -0.0000
 23 C      6.0922     6.0000    -0.0922     3.8767     3.8767     0.0000
 24 C      6.1483     6.0000    -0.1483     3.9365     3.9365     0.0000
 25 C      6.1462     6.0000    -0.1462     3.9367     3.9367     0.0000
 26 C      6.1094     6.0000    -0.1094     3.8704     3.8704    -0.0000
 27 C      6.0414     6.0000    -0.0414     3.8534     3.8534    -0.0000
 28 C      6.1360     6.0000    -0.1360     3.9012     3.9012    -0.0000
 29 C      6.1502     6.0000    -0.1502     3.9511     3.9511     0.0000
 30 C      6.0804     6.0000    -0.0804     3.8596     3.8596     0.0000
 31 C      6.1445     6.0000    -0.1445     3.9376     3.9376     0.0000
 32 C      6.1201     6.0000    -0.1201     3.8411     3.8411     0.0000
 33 C      6.0878     6.0000    -0.0878     3.8679     3.8679     0.0000
 34 C      6.1347     6.0000    -0.1347     3.9347     3.9347    -0.0000
 35 C      6.1627     6.0000    -0.1627     3.8482     3.8482    -0.0000
 36 C      5.9384     6.0000     0.0616     3.6965     3.6965     0.0000
 37 C      6.1241     6.0000    -0.1241     3.8843     3.8843     0.0000
 38 C      6.1495     6.0000    -0.1495     3.9394     3.9394    -0.0000
 39 H      0.8766     1.0000     0.1234     0.9865     0.9865    -0.0000
 40 H      0.8960     1.0000     0.1040     0.9705     0.9705     0.0000
 41 H      0.8923     1.0000     0.1077     0.9669     0.9669    -0.0000
 42 H      0.8927     1.0000     0.1073     0.9694     0.9694    -0.0000
 43 H      0.8648     1.0000     0.1352     0.9664     0.9664    -0.0000
 44 H      0.8661     1.0000     0.1339     0.9787     0.9787     0.0000
 45 H      0.8927     1.0000     0.1073     0.9687     0.9687    -0.0000
 46 H      0.8923     1.0000     0.1077     0.9669     0.9669     0.0000
 47 H      0.8938     1.0000     0.1062     0.9711     0.9711     0.0000
 48 H      0.8445     1.0000     0.1555     0.9540     0.9540    -0.0000
 49 H      0.8437     1.0000     0.1563     0.9551     0.9551    -0.0000
 50 H      0.8832     1.0000     0.1168     1.0068     1.0068     0.0000
 51 H      0.8945     1.0000     0.1055     0.9711     0.9711    -0.0000
 52 H      0.8918     1.0000     0.1082     0.9667     0.9667     0.0000
 53 H      0.8922     1.0000     0.1078     0.9696     0.9696    -0.0000
 54 H      0.8530     1.0000     0.1470     0.9563     0.9563     0.0000
 55 H      0.8931     1.0000     0.1069     0.9702     0.9702    -0.0000
 56 H      0.8921     1.0000     0.1079     0.9668     0.9668    -0.0000
 57 H      0.8947     1.0000     0.1053     0.9708     0.9708    -0.0000
 58 H      0.8792     1.0000     0.1208     0.9861     0.9861    -0.0000
 59 H      0.8711     1.0000     0.1289     0.9850     0.9850    -0.0000
 60 H      0.8430     1.0000     0.1570     0.9531     0.9531    -0.0000
 61 H      0.8938     1.0000     0.1062     0.9714     0.9714    -0.0000
 62 H      0.8929     1.0000     0.1071     0.9693     0.9693     0.0000
 63 H      0.8919     1.0000     0.1081     0.9667     0.9667     0.0000
 64 H      0.8477     1.0000     0.1523     0.9584     0.9584    -0.0000
 65 H      0.8613     1.0000     0.1387     1.0011     1.0011    -0.0000
 66 H      0.8942     1.0000     0.1058     0.9718     0.9718    -0.0000
 67 H      0.8916     1.0000     0.1084     0.9666     0.9666    -0.0000
 68 H      0.8927     1.0000     0.1073     0.9705     0.9705     0.0000
 69 H      1.0277     1.0000    -0.0277     1.0185     1.0185    -0.0000
 70 H      0.9156     1.0000     0.0844     0.9857     0.9857    -0.0000
 71 H      1.0067     1.0000    -0.0067     1.0274     1.0274    -0.0000
 72 H      1.0913     1.0000    -0.0913     1.0058     1.0058     0.0000

  Mayer bond orders larger than 0.100000
B(  0-Ru,  1-P ) :   0.9712 B(  0-Ru,  2-P ) :   0.9363 B(  0-Ru, 69-H ) :   0.4482 
B(  0-Ru, 70-H ) :   0.4347 B(  0-Ru, 71-H ) :   0.9498 B(  0-Ru, 72-H ) :   0.7874 
B(  1-P ,  3-C ) :   0.9631 B(  1-P ,  7-C ) :   0.9717 B(  1-P , 36-C ) :   0.8984 
B(  2-P , 13-C ) :   0.9387 B(  2-P , 20-C ) :   0.9026 B(  2-P , 27-C ) :   0.9497 
B(  3-C , 14-C ) :   1.3700 B(  3-C , 35-C ) :   1.3022 B(  4-C ,  5-C ) :   1.3705 
B(  4-C , 38-C ) :   1.3965 B(  4-C , 46-H ) :   0.9682 B(  5-C ,  6-C ) :   1.4118 
B(  5-C , 45-H ) :   0.9706 B(  6-C , 36-C ) :   1.2936 B(  6-C , 44-H ) :   0.9522 
B(  7-C ,  8-C ) :   1.3594 B(  7-C , 12-C ) :   1.2955 B(  8-C ,  9-C ) :   1.4113 
B(  8-C , 39-H ) :   0.9299 B(  9-C , 10-C ) :   1.3760 B(  9-C , 40-H ) :   0.9786 
B( 10-C , 11-C ) :   1.3723 B( 10-C , 41-H ) :   0.9681 B( 11-C , 12-C ) :   1.3894 
B( 11-C , 42-H ) :   0.9711 B( 12-C , 43-H ) :   0.9497 B( 13-C , 15-C ) :   1.3733 
B( 13-C , 19-C ) :   1.3166 B( 14-C , 25-C ) :   1.4178 B( 14-C , 50-H ) :   0.9210 
B( 15-C , 16-C ) :   1.4127 B( 15-C , 58-H ) :   0.9340 B( 16-C , 17-C ) :   1.3743 
B( 16-C , 57-H ) :   0.9729 B( 17-C , 18-C ) :   1.3819 B( 17-C , 56-H ) :   0.9682 
B( 18-C , 19-C ) :   1.3934 B( 18-C , 55-H ) :   0.9725 B( 19-C , 54-H ) :   0.9488 
B( 20-C , 21-C ) :   1.3111 B( 20-C , 26-C ) :   1.3462 B( 21-C , 22-C ) :   1.4171 
B( 21-C , 59-H ) :   0.9447 B( 22-C , 23-C ) :   1.3725 B( 22-C , 62-H ) :   0.9709 
B( 23-C , 24-C ) :   1.3918 B( 23-C , 63-H ) :   0.9687 B( 24-C , 26-C ) :   1.4060 
B( 24-C , 61-H ) :   0.9740 B( 25-C , 33-C ) :   1.3722 B( 25-C , 51-H ) :   0.9735 
B( 26-C , 60-H ) :   0.9307 B( 27-C , 28-C ) :   1.3575 B( 27-C , 32-C ) :   1.3330 
B( 28-C , 29-C ) :   1.4223 B( 28-C , 65-H ) :   0.9202 B( 29-C , 30-C ) :   1.3715 
B( 29-C , 66-H ) :   0.9711 B( 30-C , 31-C ) :   1.3876 B( 30-C , 67-H ) :   0.9686 
B( 31-C , 32-C ) :   1.4032 B( 31-C , 68-H ) :   0.9729 B( 32-C , 64-H ) :   0.9424 
B( 33-C , 34-C ) :   1.3869 B( 33-C , 52-H ) :   0.9682 B( 34-C , 35-C ) :   1.4038 
B( 34-C , 53-H ) :   0.9701 B( 35-C , 49-H ) :   0.9497 B( 36-C , 37-C ) :   1.3498 
B( 37-C , 38-C ) :   1.4051 B( 37-C , 48-H ) :   0.9335 B( 38-C , 47-H ) :   0.9729 
B( 69-H , 70-H ) :   0.5301 

-------
TIMINGS
-------

Total SCF time: 0 days 0 hours 13 min 39 sec 

Total time                  ....     819.492 sec
Sum of individual times     ....     797.799 sec  ( 97.4%)

SCF preparation             ....       0.193 sec  (  0.0%)
Fock matrix formation       ....     782.748 sec  ( 95.5%)
  Startup                   ....       0.088 sec  (  0.0% of F)
  Split-RI-J                ....     353.728 sec  ( 45.2% of F)
  XC integration            ....     450.010 sec  ( 57.5% of F)
    XC Preparation          ....       0.000 sec  (  0.0% of XC)
    Basis function eval.    ....      87.224 sec  ( 19.4% of XC)
    Density eval.           ....     171.490 sec  ( 38.1% of XC)
    XC-Functional eval.     ....       5.392 sec  (  1.2% of XC)
    XC-Potential eval.      ....     180.667 sec  ( 40.1% of XC)
Diagonalization             ....       0.000 sec  (  0.0%)
Density matrix formation    ....       0.697 sec  (  0.1%)
Total Energy calculation    ....       0.113 sec  (  0.0%)
Population analysis         ....       0.311 sec  (  0.0%)
Orbital Transformation      ....       1.378 sec  (  0.2%)
Orbital Orthonormalization  ....       0.000 sec  (  0.0%)
DIIS solution               ....       6.096 sec  (  0.7%)
SOSCF solution              ....       6.263 sec  (  0.8%)
Finished LeanSCF after 819.6 sec

Maximum memory used throughout the entire LEANSCF-calculation: 405.3 MB

-------------------------   --------------------
FINAL SINGLE POINT ENERGY     -2170.655315618085
-------------------------   --------------------


------------------------------------------------------------------------------
                              ORCA PROPERTY CALCULATIONS
------------------------------------------------------------------------------

GBWName                                 ... 15h_def2tzvp.gbw
Number of atoms                         ...     73
Number of basis functions               ...   1434
Max core memory                         ...   4096 MB

Electric properties:
Dipole moment                           ... YES
Quadrupole moment                       ...  NO
Static polarizability (Dipole/Dipole)   ...  NO
Static polarizability (Dipole/Quad.)    ...  NO
Static polarizability (Quad./Quad.)     ...  NO
Static polarizability (Velocity)        ...  NO
Static hyperpolarizability              ...  NO

Atomic electric properties:
Dipole moment                           ...  NO
Quadrupole moment                       ...  NO
Static polarizability                   ...  NO

Choice of electric origin               ... Center of mass
Position of electric origin             ...    -0.002441    -0.033901     0.016895

General magnetic properties:
Magnetizability                         ...  NO

EPR properties:
g-Tensor (aka g-matrix)                 ...  NO
Zero-Field splitting spin-orbit         ...  NO
Zero-field splitting spin-spin          ...  NO
Hyperfine couplings                     ...  NO (   0 nuclei)
Quadrupole couplings                    ...  NO (   0 nuclei)
Contact density                         ...  NO (   0 nuclei)

NMR properties:
Chemical shifts                         ...  NO (   0 nuclei)
Spin-rotation constants                 ...  NO (   0 nuclei)
Spin-spin couplings                     ...  NO (   0 nuclei,    0 pairs)

Choice of magnetic origin               ... GIAO
Position of magnetic origin             ...     0.000000     0.000000     0.000000

Properties with geometric perturbations:
SCF Hessian                             ...  NO
IR spectrum                             ...  NO
VCD spectrum                            ...  NO
X-ray spectroscopy properties:
SCF XES/XAS/RIXS spectra                ...  NO

SCF SOC stabilization energy            ...  NO
Diagonal Born-Oppenheimer correction    ...  NO

-------------
DIPOLE MOMENT
-------------

Method             : SCF
Type of density    : Electron Density
Multiplicity       :   1
Irrep              :   0
Energy             : -2170.6553156180852966 Eh
Basis              : AO
                                X                 Y                 Z
Electronic contribution:     -0.592256959     -16.403673859     -12.346881237
Nuclear contribution   :      0.614226203      16.192200703      12.592729265
                        -----------------------------------------
Total Dipole Moment    :      0.021969245      -0.211473156       0.245848028
                        -----------------------------------------
Magnitude (a.u.)       :      0.325030454
Magnitude (Debye)      :      0.826161758



--------------------
Rotational spectrum 
--------------------
 
Rotational constants in cm-1:             0.003559             0.001831             0.001814 
Rotational constants in MHz :           106.691148            54.898207            54.385379 

Dipole components along the rotational axes: 
x,y,z [a.u.] :     0.025294    -0.274380    -0.172397 
x,y,z [Debye]:     0.064293    -0.697419    -0.438197 

 

Dipole moment calculation done in   0.0 sec 

Maximum memory used throughout the entire PROP-calculation: 312.6 MB

--------------------------------
SUGGESTED CITATIONS FOR THIS RUN
--------------------------------

Below you find a list of papers that are relevant to this ORCA run
We neither can nor want to force you to cite these papers, but we appreciate if you do
You receive ORCA, which is the product of decades of hard work by many enthusiastic individuals, for free
The only thing we kindly ask in return is that you cite our papers,
We deeply appreciate it, if you show your appreciation for ORCA by not just citing the generic ORCA reference.

Please note that relegating all ORCA citations to the supporting information does *not* help us.
SI sections are not indexed - citations you put there will not count into any citation statistics
But we need these citations in order to attract the funding resources that allow us to do what we are doing

Therefore, if you are a happy ORCA user, please consider citing a few of the papers listed below in the main body of your paper

In addition to the list printed below, the program has created the file 15h_def2tzvp.bibtex that contains the list in bibtex format
You can import this file easily into all common literature databanks and citation aid programs

It goes without saying that in many instances, there are alternative algorithms to achieve similar
results as the ones you have gotten from ORCA. It is, of course, also the case that in some instances
ORCA just re-implements algorithms worked out by others. We are fully aware of that and we are also
fully appreciative of our colleagues work. Hence this citation list should not be read as indicating
that the listed papers, which are focused on our own work, are the only ones worth citing. It simply
meant to make it easier for users to cite ORCA specific papers. It is not a substitute for doing your
own literature research and citing the relevant literature in a scientifically appropriate manner.

List of essential papers. We consider these as the minimum necessary citations

  1. Neese, F.
     Software update: the ORCA program system, version 6.0
     WIRES Comput. Molec. Sci. 2025 15(1), e70019
     doi.org/10.1002/wcms.70019

List of papers to cite with high priority. The work reported in these papers was absolutely
necessary for this run to complete.
Our perspective: the developers of density functionals and basis sets usually get cited in chemistry papers
Good! But without the algorithms to do something with them, the functionals or basis sets would not do anything.
Hence, in our opinion, the algorithm design and method developments papers are equally worthy of getting cited

  1. Neese, F.
     An improvement of the resolution of the identity approximation for the formation of the Coulomb matrix
     J. Comp. Chem. 2003 24(14), 1740-1747
     doi.org/10.1002/jcc.10318
  2. Neese, F.
     The SHARK Integral Generation and Digestion System
     J. Comp. Chem. 2022 44(3), 381
     doi.org/10.1002/jcc.26942

List of suggested additional citations. These are papers that are important in the 'surrounding' of 
of this run, or papers that preceded the highly important papers. If you like your results we are grateful for a citation.

  1. Neese, F.
     The ORCA program system
     WIRES Comput. Molec. Sci. 2012 2(1), 73-78
     doi.org/10.1002/wcms.81
  2. Neese, F.
     Software update: the ORCA program system, version 4.0
     WIRES Comput. Molec. Sci. 2018 8(1), 1-6
     doi.org/10.1002/wcms.1327
  3. Neese, F.; Wennmohs, F.; Becker, U.; Riplinger, C.
     The ORCA quantum chemistry program package
     J. Chem. Phys. 2020 152(22), 224108
     doi.org/10.1063/5.0004608
  4. Neese, F.
     Software update: The ORCA program system—Version 5.0
     WIRES Comput. Molec. Sci. 2022 12(1), e1606
     doi.org/10.1002/wcms.1606

List of optional additional citations

  1. Neese, F.
     Approximate second-order SCF convergence for spin unrestricted wavefunctions
     Chem. Phys. Lett. 2000 325(1-3), 93-98
     doi.org/10.1016/s0009-2614(00)00662-x

Timings for individual modules:

Sum of individual times          ...      853.440 sec (=  14.224 min)
Startup calculation              ...       18.741 sec (=   0.312 min)   2.2 %
SCF iterations                   ...      834.505 sec (=  13.908 min)  97.8 %
Property calculations            ...        0.194 sec (=   0.003 min)   0.0 %
                             ****ORCA TERMINATED NORMALLY****
TOTAL RUN TIME: 0 days 0 hours 14 minutes 13 seconds 678 msec
