
                                 *****************
                                 * O   R   C   A *
                                 *****************

                                            #,                                       
                                            ###                                      
                                            ####                                     
                                            #####                                    
                                            ######                                   
                                           ########,                                 
                                     ,,################,,,,,                         
                               ,,#################################,,                 
                          ,,##########################################,,             
                       ,#########################################, ''#####,          
                    ,#############################################,,   '####,        
                  ,##################################################,,,,####,       
                ,###########''''           ''''###############################       
              ,#####''   ,,,,##########,,,,          '''####'''          '####       
            ,##' ,,,,###########################,,,                        '##       
           ' ,,###''''                  '''############,,,                           
         ,,##''                                '''############,,,,        ,,,,,,###''
      ,#''                                            '''#######################'''  
     '                                                          ''''####''''         
             ,#######,   #######,   ,#######,      ##                                
            ,#'     '#,  ##    ##  ,#'     '#,    #''#        ,####,    ,#,          
            ##       ##  ##   ,#'  ##            #'  '#       #'       ,# #          
            ##       ##  #######   ##           ,######,      #####,      #          
            '#,     ,#'  ##    ##  '#,     ,#' ,#      #,     #,   #      #          
             '#######'   ##     ##  '#######'  #'      '#     '####' #    #          



                #########################################################
                #                        -***-                          #
                #          Department of theory and spectroscopy        #
                #                                                       #
                #                      Frank Neese                      #
                #                                                       #
                #     Directorship, Architecture, Infrastructure        #
                #                    SHARK, DRIVERS                     #
                #        Core code/Algorithms in most modules           #
                #                                                       #
                #        Max Planck Institute fuer Kohlenforschung      #
                #                Kaiser Wilhelm Platz 1                 #
                #                 D-45470 Muelheim/Ruhr                 #
                #                      Germany                          #
                #                                                       #
                #                  All rights reserved                  #
                #                        -***-                          #
                #########################################################


                         Program Version 6.1.1  -  RELEASE   -
                                (GIT: $487d211c$)
                          ($2025-11-21 10:33:24 +0100$)


 With contributions from (in alphabetic order):
[Max-Planck-Institut fuer Kohlenforschung]                               
  Daniel Aravena         : Magnetic Suceptibility                        
  Michael Atanasov       : Ab Initio Ligand Field Theory (pilot matlab implementation)
  Alexander A. Auer      : GIAO ZORA, VPT2 properties, NMR spectrum      
  Ute Becker             : All parallelization in ORCA, NUMFREQ, NUMCALC 
  Giovanni Bistoni       : ED, misc. LED, open-shell LED, HFLD           
  Dmytro Bykov           : pre 5.0 version of the SCF Hessian            
  Marcos Casanova-Páez   : Triplet and SCS-CIS(D). UHF-(DLPNO)-IP/EA/STEOM-CCSD. UHF-CVS-IP/STEOM-CCSD   
  Vijay G. Chilkuri      : MRCI spin determinant printing, contributions to CSF-ICE 
  Pauline Colinet        : FMM embedding                                 
  Dipayan Datta          : RHF DLPNO-CCSD density                        
  Achintya Kumar Dutta   : EOM-CC, STEOM-CC                              
  Nicolas Foglia         : Exact transition moments, OPA infrastructure, MCD improvements    
  Dmitry Ganyushin       : Spin-Orbit,Spin-Spin,Magnetic field MRCI      
  Miquel Garcia-Rates    : C-PCM and meta-GGA Hessian, CCSD/C-PCM, Gaussian charge scheme 
  Tiago L. C. Gouveia    : GS-ROHF, GS-ROCIS                             
  Yang Guo               : DLPNO-NEVPT2, F12-NEVPT2, CIM, IAO-localization        
  Andreas Hansen         : Spin unrestricted coupled pair/coupled cluster methods 
  Ingolf Harden          : AUTO-CI MPn and infrastructure                
  Benjamin Helmich-Paris : MC-RPA, TRAH-(SCF,CASSCF), AVAS, COSX integrals, SCF dyn. polar., MC-PDFT, srDFT 
  Lee Huntington         : MR-EOM, pCC                                   
  Robert Izsak           : Overlap fitted RIJCOSX, COSX-SCS-MP3, EOM     
  Riya Kayal             : Wick's Theorem for AUTO-CI, AUTO-CI UHF-CCSDT 
  Emily Kempfer          : AUTO-CI RHF CISDT and CCSDT, approximate NEVPT4
  Christian Kollmar      : KDIIS, OOCD, Brueckner-CCSD(T), CCSD density, CASPT2, CASPT2-K, improved NEVPT2 
  Axel Koslowski         : Symmetry handling                             
  Simone Kossmann        : meta-GGA functionals, TD-DFT gradient, OOMP2, (MP2 Hessian; deprecated post 5.0) 
  Lucas Lang             : DCDCAS, Hyperfine gauge corrections, ICE-SOC+SSC
  Marvin Lechner         : AUTO-CI (C++ implementation), FIC-MRCC        
  Spencer Leger          : CASSCF response                               
  Dagmar Lenk            : GEPOL surface, SMD, ORCA-2-JSON               
  Dimitrios Liakos       : Extrapolation schemes; Compound Job, Property file
  Dimitrios Manganas     : Further ROCIS development; embedding schemes. LFT, Crystal Embedding 
  Dimitrios Pantazis     : SARC Basis sets                               
  Anastasios Papadopoulos: AUTO-CI, single reference methods and gradients 
  Taras Petrenko         : pre 6.0 DFT Hessian and TD-DFT gradient,  ECA, NRVS 
  Petra Pikulova         : Analytic Raman intensities                    
  Peter Pinski           : DLPNO-MP2, DLPNO-MP2 Gradient                 
  Shashank Vittal Rao    : ES-AILFT, MagRelax                            
  Christoph Reimann      : Effective Core Potentials                     
  Marius Retegan         : Local ZFS, SOC                                
  Christoph Riplinger    : Optimizer, TS searches, QM/MM, DLPNO-CCSD(T), (RO)-DLPNO pert. Triples 
  Michael Roemelt        : Original ROCIS implementation, recursive CI coupling coefficients
  Masaaki Saitow         : Open-shell DLPNO-CCSD energy and density      
  Barbara Sandhoefer     : DKH picture change effects                    
  Yorick L. A. Schmerwitz: GMF and freeze-and-release deltaSCF, NEB S-IDPP initial path                    
  Kantharuban Sivalingam : CASSCF convergence/infrastructure, NEVPT2, NEVPT3, NEVPT4(SD), FIC-MRCI and CEPA variants
  Bernardo de Souza      : ESD, SOC TD-DFT                               
  Georgi L. Stoychev     : AutoAux, RI-MP2 NMR, DLPNO-MP2 response, X2C  
  Van Anh Tran           : RI-MP2 g-tensors                              
  Willem Van den Heuvel  : Paramagnetic NMR                              
  Zikuan Wang            : NOTCH, Electric field optimization            
  Frank Wennmohs         : Technical directorship and infrastructure     
  Hang Xu                : AUTO-CI-Response properties                   
                                                                         
[FACCTs GmbH]                                                            
  Markus Bursch, Nicolas Foglia, Miquel Garcia-Rates, Ingolf Harden, Hagen Neugebauer, Anastasios Papadopoulos, 
  Christoph Riplinger, Bernardo de Souza, Georgi L. Stoychev                                                    
                                                                 
  APM, various basis sets, CI-OPT, improved COSX, DLPNO-Multilevel,           
  DOCKER, DRACO, updates on ESD, Fragmentator, GOAT, IRC, LR-CPCM, L-BFGS, MBIS, meta-GGA TD-DFT gradient, ML-optimized integration grids, 
  MM, NACMEs, nearIR, NEB, NEB-TS, NL-DFT gradient (VV10), 2- and 3-layer-ONIOM, interface openCOSMO-RS, QMMM,   
  Crystal-QMMM, RESP, rigid body optimization, SF, symmetry and pop. for TD-DFT, various functionals, SOLVATOR                                   
                                                                         
[Other institutions]                                                     
  V. Asgeirsson          : NEB                                           
  Christoph Bannwarth    : sTDA-DFT, sTD-DFT, PBEh-3c, B97-3c, D3        
  Giovanni Bistoni       : ETS/NOCV, ADLD/ADEX, COVALED                  
  Martin Brehm           : Molecular dynamics                            
  Ronald Cardenas        : ETS/NOCV                                      
  Martina Colucci        : COVALED                                       
  Sebastian Ehlert       : rSCAN, r2SCAN, r2SCAN-3c, D4, dhf basis sets  
  Marvin Friede          : D4 for Fr, Ra, Ac-Lr                          
  Lars Goerigk           : TD-DFT with DH, B97 family of functionals     
  Stefan Grimme          : VdW corrections, initial TS optimization, DFT functionals, gCP, sTDA/sTD-DF 
  Waldemar Hujo          : DFT-NL                                        
  H. Jonsson             : NEB                                           
  Holger Kruse           : gCP                                           
  Marcel Mueller         : wB97X-3c, vDZP basis set                      
  Hagen Neugebauer       : wr2SCAN, Native XTB                           
  Gianluca Regni         : ADLD/ADEX                                     
  Tobias Risthaus        : pre 6.0 range-separated hybrid DFT and stability analysis
  Lukas Wittmann         : regularized MP2, r2SCAN double-hybrids, wr2SCAN        
                                                                         
We gratefully acknowledge several colleagues who have allowed us to      
interface, adapt or use parts of their codes:                            
  Ed Valeev, F. Pavosevic, A. Kumar             : LibInt (2-el integral package), F12 methods 
  Garnet Chan, S. Sharma, J. Yang, R. Olivares  : DMRG                   
  Ulf Ekstrom                                   : XCFun DFT Library      
  Mihaly Kallay                                 : mrcc  (arbitrary order and MRCC methods)
  Frank Weinhold                                : gennbo (NPA and NBO analysis)           
  Simon Mueller                                 : openCOSMO-RS                            
  Christopher J. Cramer and Donald G. Truhlar   : smd solvation model                     
  S Lehtola, MJT Oliveira, MAL Marques          : LibXC Library                           
  Liviu Ungur et al                             : ANISO software                          


 Your calculation uses the libint2 library for the computation of 2-el integrals
 For citations please refer to: http://libint.valeyev.net

 Your ORCA version has been built with support for libXC version: 7.0.0
 For citations please refer to: https://libxc.gitlab.io

 This ORCA versions uses:
   CBLAS   interface :  Fast vector & matrix operations
   LAPACKE interface :  Fast linear algebra routines
   SCALAPACK package :  Parallel linear algebra routines
   Shared memory     :  Shared parallel matrices
   BLAS/LAPACK       :  OpenBLAS 0.3.29  USE64BITINT DYNAMIC_ARCH NO_AFFINITY Cooperlake SINGLE_THREADED
        Core in use  :  Cooperlake
   Copyright (c) 2011-2014, The OpenBLAS Project


  ***********************************
  * Starting time: Mon Jul 13 23:26:16 2026
  * Host name:     c1-34
  * Process ID:    3740469
  * Working dir.:  /cluster/projects/nn14654k/ylvaos/TPhP_bsse/orca/opt1_bp86
  ***********************************

Warning: RI is on but no J-basis has been assigned. Assigning Def2/J (nothing to worry about!)
================================================================================

cite the ECPs for Ru [Def2-ECP] as follows:
Ce-Yb(ecp-28): M. Dolg, H. Stoll, H.Preuss, J. Chem. Phys., 1989, 90, 1730-1734.
Y-Cd(ecp-28), Hf-Hg(ecp-46): D. Andrae,U. Haeussermann, M. Dolg, H. Stoll, H. Preuss, Theor. Chim. Acta, 1990, 77, 123-141.
In-Sb(ecp-28), Tl-Bi(ecp-46): B. Metz, H. Stoll, M. Dolg, J. Chem. Phys., 2000, 113, 2563-2569.
Te-Xe(ecp-28), Po-Rn(ecp-46): K. A. Peterson, D. Figgen, E. Goll, H. Stoll, M. Dolg, J. Chem. Phys., 2003, 119, 11113-11123.
Rb(ecp-28), Cs(ecp-46): T. Leininger, A. Nicklass, W. Kuechle, H. Stoll, M. Dolg, A. Bergner, Chem. Phys. Lett., 1996, 255, 274-280.
Sr(ecp-28), Ba(ecp-46): M. Kaupp, P. V. Schleyer, H. Stoll and H. Preuss, J. Chem. Phys., 1991, 94, 1360-1366.
La(ecp-46): M. Dolg, H. Stoll, A. Savin, H. Preuss, Theor. Chim. Acta, 1989, 75, 173-194.
Lu(ecp-28): X. Cao, M. Dolg, J. Chem. Phys., 2001, 115, 7348-7355.

ECP parameters for Ru [Def2-ECP] have been obtained from:
TURBOMOLE (7.0.2)

----- Orbital basis set information -----
Your calculation utilizes the basis: def2-SVP
   F. Weigend and R. Ahlrichs, Phys. Chem. Chem. Phys. 7, 3297 (2005).

----- AuxJ basis set information -----
Your calculation utilizes the auxiliary basis: def2/J
   H-Rn: F. Weigend, Phys. Chem. Chem. Phys. 8, 1057 (2006).
   Fr-Lr: K. Eichkorn, F. Weigend, O. Treutler, R. Ahlrichs; Theor. Chem. Acc. 97, 119 (1997).

================================================================================
                                        WARNINGS
                       Please study these warnings very carefully!
================================================================================


================================================================================
                                       INPUT FILE
================================================================================
NAME = 15h_def2svp.inp
|  1> ! BP86 def2-SVP VeryTightSCF defgrid3
|  2> 
|  3> *xyz 0 1
|  4>   Ru         -0.00925004775463     -0.25536936277321     -0.18825278681969
|  5>   P          -2.28746525779038     -0.03663875983905     -0.11703056887638
|  6>   P           2.27352104051140     -0.06830618284926     -0.08987424438066
|  7>   C          -2.95694403329638     -0.56589388803592      1.51166183203681
|  8>   C          -4.68588002631837     -2.65522342081126     -3.10800690267257
|  9>   C          -3.80429316837499     -3.22819478832069     -2.18599586412859
| 10>   C          -3.10436431259569     -2.41792058145074     -1.29607166149743
| 11>   C          -2.99847462219471      1.64290792078062     -0.29732141253688
| 12>   C          -2.23385390083417      2.64917097877968     -0.89478195778610
| 13>   C          -2.76830796604987      3.92698741816221     -1.07445013172761
| 14>   C          -4.06643234864214      4.20901696201014     -0.64889027413227
| 15>   C          -4.83176030962395      3.21044174182241     -0.04030731663076
| 16>   C          -4.29972833148420      1.93379203475753      0.13445813244788
| 17>   C           2.99491750875301      1.59111204001732     -0.38021386514532
| 18>   C          -2.21051644255673     -0.21407730749035      2.64586108236492
| 19>   C           2.37967658113588      2.43970612448855     -1.30719427688353
| 20>   C           2.92777172643227      3.69103260050782     -1.59053790210380
| 21>   C           4.08976402505571      4.10982886483225     -0.93960158536038
| 22>   C           4.70271791757583      3.27216720930878     -0.00582852741145
| 23>   C           4.15884700050561      2.01697745342086      0.27127570517234
| 24>   C           3.31976765096714     -1.14242351397956     -1.15247015611903
| 25>   C           2.99592077218013     -2.50551127759317     -1.21249805943498
| 26>   C           3.75318693304898     -3.38324175348832     -1.98496482711764
| 27>   C           4.83714731127259     -2.90417476363681     -2.72608274499744
| 28>   C           5.15764292152911     -1.54804022712270     -2.68341408715564
| 29>   C          -2.64432555630812     -0.57745835685807      3.92039352144551
| 30>   C           4.40548547649142     -0.67050322186508     -1.89707926270940
| 31>   C           2.89245257728965     -0.46936486279866      1.59483798518449
| 32>   C           2.20758734445452      0.10130465561008      2.67880710165029
| 33>   C           2.61228847035378     -0.15837970188818      3.98733524808428
| 34>   C           3.70296383619983     -0.99720472000655      4.22925016418195
| 35>   C           4.38740598136241     -1.56931158792676      3.15661374661631
| 36>   C           3.98586899012409     -1.30633116225817      1.84448154354112
| 37>   C          -3.82889292060837     -1.30062111529284      4.07551930087801
| 38>   C          -4.57603645685308     -1.65638367945022      2.95165076660308
| 39>   C          -4.14267454720824     -1.29182530235421      1.67508057706404
| 40>   C          -3.28771063935641     -1.02679901373114     -1.29745485201502
| 41>   C          -4.16794058720015     -0.46111044649408     -2.22429169263643
| 42>   C          -4.86115631793298     -1.27295527595040     -3.12773846958253
| 43>   H          -1.20991149009259      2.42159095646420     -1.19918772631452
| 44>   H          -2.16192721334001      4.70834085853446     -1.54165989492825
| 45>   H          -4.48288863246924      5.21164649636179     -0.78416457524854
| 46>   H          -5.84695372240125      3.42922560047627      0.30327393917855
| 47>   H          -4.90262492728677      1.15835429674455      0.61500041668560
| 48>   H          -2.40623162946576     -2.86943335648449     -0.58427857125151
| 49>   H          -3.65737821690662     -4.31201742786721     -2.16707479342193
| 50>   H          -5.23133392712212     -3.28901416320762     -3.81322464664498
| 51>   H          -5.54329988582764     -0.81658302232318     -3.85092763442358
| 52>   H          -4.31588612463561      0.62083858413486     -2.24935320858425
| 53>   H          -4.73263768617876     -1.57995437424440      0.80109696835359
| 54>   H          -1.28458599740284      0.35583855227449      2.51790014519603
| 55>   H          -2.05280865632817     -0.29745775090676      4.79687564548462
| 56>   H          -4.16896356970783     -1.58970132294633      5.07423354951906
| 57>   H          -5.50403264935004     -2.22394123709266      3.06760212173425
| 58>   H           4.64436625084629      1.36640076598571      1.00366645935336
| 59>   H           5.60938188448777      3.59803475873697      0.51221082985407
| 60>   H           4.51580729111323      5.09401220764028     -1.15581412249854
| 61>   H           2.43960374945311      4.34640010036442     -2.31770376201266
| 62>   H           1.45880981772429      2.11152052679666     -1.79532527345965
| 63>   H           2.14014692322358     -2.88028865666619     -0.64323717470634
| 64>   H           4.66921520912483      0.38914299861227     -1.87001242348478
| 65>   H           6.00065144030798     -1.16505166724214     -3.26586991272061
| 66>   H           3.49242154786639     -4.44512314954162     -2.01647299512800
| 67>   H           5.42813238343469     -3.58957667620333     -3.34054600566663
| 68>   H           4.53161980236671     -1.75729766541695      1.01207465358882
| 69>   H           1.35617610851651      0.75993782615411      2.48184588770295
| 70>   H           2.07256648010496      0.29531945964719      4.82375193652039
| 71>   H           4.01916421243715     -1.20498208662908      5.25565959014262
| 72>   H           5.24310874311027     -2.22582257597751      3.33959534953812
| 73>   H          -0.06889236630291     -1.89070629596966     -0.78406801540654
| 74>   H          -0.00404706649099     -1.35374399510523     -1.49081610496843
| 75>   H          -0.01446580762212      0.53784207698531     -1.52164479141234
| 76>   H           0.01480645255371      1.17573762767796      0.60021686202054
| 77> **                         ****END OF INPUT****
================================================================================

                       ****************************
                       * Single Point Calculation *
                       ****************************

---------------------------------
CARTESIAN COORDINATES (ANGSTROEM)
---------------------------------
  Ru    -0.009250   -0.255369   -0.188253
  P     -2.287465   -0.036639   -0.117031
  P      2.273521   -0.068306   -0.089874
  C     -2.956944   -0.565894    1.511662
  C     -4.685880   -2.655223   -3.108007
  C     -3.804293   -3.228195   -2.185996
  C     -3.104364   -2.417921   -1.296072
  C     -2.998475    1.642908   -0.297321
  C     -2.233854    2.649171   -0.894782
  C     -2.768308    3.926987   -1.074450
  C     -4.066432    4.209017   -0.648890
  C     -4.831760    3.210442   -0.040307
  C     -4.299728    1.933792    0.134458
  C      2.994918    1.591112   -0.380214
  C     -2.210516   -0.214077    2.645861
  C      2.379677    2.439706   -1.307194
  C      2.927772    3.691033   -1.590538
  C      4.089764    4.109829   -0.939602
  C      4.702718    3.272167   -0.005829
  C      4.158847    2.016977    0.271276
  C      3.319768   -1.142424   -1.152470
  C      2.995921   -2.505511   -1.212498
  C      3.753187   -3.383242   -1.984965
  C      4.837147   -2.904175   -2.726083
  C      5.157643   -1.548040   -2.683414
  C     -2.644326   -0.577458    3.920394
  C      4.405485   -0.670503   -1.897079
  C      2.892453   -0.469365    1.594838
  C      2.207587    0.101305    2.678807
  C      2.612288   -0.158380    3.987335
  C      3.702964   -0.997205    4.229250
  C      4.387406   -1.569312    3.156614
  C      3.985869   -1.306331    1.844482
  C     -3.828893   -1.300621    4.075519
  C     -4.576036   -1.656384    2.951651
  C     -4.142675   -1.291825    1.675081
  C     -3.287711   -1.026799   -1.297455
  C     -4.167941   -0.461110   -2.224292
  C     -4.861156   -1.272955   -3.127738
  H     -1.209911    2.421591   -1.199188
  H     -2.161927    4.708341   -1.541660
  H     -4.482889    5.211646   -0.784165
  H     -5.846954    3.429226    0.303274
  H     -4.902625    1.158354    0.615000
  H     -2.406232   -2.869433   -0.584279
  H     -3.657378   -4.312017   -2.167075
  H     -5.231334   -3.289014   -3.813225
  H     -5.543300   -0.816583   -3.850928
  H     -4.315886    0.620839   -2.249353
  H     -4.732638   -1.579954    0.801097
  H     -1.284586    0.355839    2.517900
  H     -2.052809   -0.297458    4.796876
  H     -4.168964   -1.589701    5.074234
  H     -5.504033   -2.223941    3.067602
  H      4.644366    1.366401    1.003666
  H      5.609382    3.598035    0.512211
  H      4.515807    5.094012   -1.155814
  H      2.439604    4.346400   -2.317704
  H      1.458810    2.111521   -1.795325
  H      2.140147   -2.880289   -0.643237
  H      4.669215    0.389143   -1.870012
  H      6.000651   -1.165052   -3.265870
  H      3.492422   -4.445123   -2.016473
  H      5.428132   -3.589577   -3.340546
  H      4.531620   -1.757298    1.012075
  H      1.356176    0.759938    2.481846
  H      2.072566    0.295319    4.823752
  H      4.019164   -1.204982    5.255660
  H      5.243109   -2.225823    3.339595
  H     -0.068892   -1.890706   -0.784068
  H     -0.004047   -1.353744   -1.490816
  H     -0.014466    0.537842   -1.521645
  H      0.014806    1.175738    0.600217

----------------------------
CARTESIAN COORDINATES (A.U.)
----------------------------
  NO LB      ZA    FRAG     MASS         X           Y           Z
   0 Ru   16.0000*   0   101.070   -0.017480   -0.482578   -0.355746
   1 P    15.0000    0    30.974   -4.322683   -0.069237   -0.221156
   2 P    15.0000    0    30.974    4.296332   -0.129080   -0.169838
   3 C     6.0000    0    12.011   -5.587814   -1.069384    2.856627
   4 C     6.0000    0    12.011   -8.855030   -5.017645   -5.873282
   5 C     6.0000    0    12.011   -7.189072   -6.100404   -4.130934
   6 C     6.0000    0    12.011   -5.866398   -4.569208   -2.449220
   7 C     6.0000    0    12.011   -5.666296    3.104646   -0.561856
   8 C     6.0000    0    12.011   -4.221372    5.006208   -1.690893
   9 C     6.0000    0    12.011   -5.231344    7.420931   -2.030416
  10 C     6.0000    0    12.011   -7.684443    7.953889   -1.226225
  11 C     6.0000    0    12.011   -9.130704    6.066856   -0.076170
  12 C     6.0000    0    12.011   -8.125309    3.654337    0.254089
  13 C     6.0000    0    12.011    5.659574    3.006766   -0.718500
  14 C     6.0000    0    12.011   -4.177271   -0.404547    4.999953
  15 C     6.0000    0    12.011    4.496937    4.610376   -2.470239
  16 C     6.0000    0    12.011    5.532687    6.975041   -3.005681
  17 C     6.0000    0    12.011    7.728534    7.766451   -1.775590
  18 C     6.0000    0    12.011    8.886849    6.183500   -0.011014
  19 C     6.0000    0    12.011    7.859082    3.811535    0.512637
  20 C     6.0000    0    12.011    6.273452   -2.158868   -2.177853
  21 C     6.0000    0    12.011    5.661470   -4.734730   -2.291289
  22 C     6.0000    0    12.011    7.092495   -6.393400   -3.751040
  23 C     6.0000    0    12.011    9.140884   -5.488095   -5.151550
  24 C     6.0000    0    12.011    9.746533   -2.925372   -5.070918
  25 C     6.0000    0    12.011   -4.997051   -1.091238    7.408470
  26 C     6.0000    0    12.011    8.325161   -1.267067   -3.584960
  27 C     6.0000    0    12.011    5.465943   -0.886971    3.013807
  28 C     6.0000    0    12.011    4.171735    0.191438    5.062212
  29 C     6.0000    0    12.011    4.936510   -0.299294    7.534972
  30 C     6.0000    0    12.011    6.997588   -1.884444    7.992125
  31 C     6.0000    0    12.011    8.290996   -2.965569    5.965135
  32 C     6.0000    0    12.011    7.532201   -2.468608    3.485565
  33 C     6.0000    0    12.011   -7.235559   -2.457818    7.701615
  34 C     6.0000    0    12.011   -8.647456   -3.130112    5.577812
  35 C     6.0000    0    12.011   -7.828520   -2.441196    3.165444
  36 C     6.0000    0    12.011   -6.212873   -1.940369   -2.451834
  37 C     6.0000    0    12.011   -7.876266   -0.871372   -4.203302
  38 C     6.0000    0    12.011   -9.186254   -2.405537   -5.910569
  39 H     1.0000    0     1.008   -2.286401    4.576144   -2.266136
  40 H     1.0000    0     1.008   -4.085450    8.897475   -2.913315
  41 H     1.0000    0     1.008   -8.471432    9.848585   -1.481856
  42 H     1.0000    0     1.008  -11.049141    6.480297    0.573105
  43 H     1.0000    0     1.008   -9.264618    2.188972    1.162182
  44 H     1.0000    0     1.008   -4.547119   -5.422443   -1.104126
  45 H     1.0000    0     1.008   -6.911443   -8.148532   -4.095178
  46 H     1.0000    0     1.008   -9.885788   -6.215336   -7.205950
  47 H     1.0000    0     1.008  -10.475319   -1.543118   -7.277199
  48 H     1.0000    0     1.008   -8.155843    1.173215   -4.250662
  49 H     1.0000    0     1.008   -8.943389   -2.985681    1.513854
  50 H     1.0000    0     1.008   -2.427516    0.672437    4.758142
  51 H     1.0000    0     1.008   -3.879246   -0.562114    9.064781
  52 H     1.0000    0     1.008   -7.878199   -3.004100    9.588912
  53 H     1.0000    0     1.008  -10.401114   -4.202640    5.796928
  54 H     1.0000    0     1.008    8.776580    2.582123    1.896655
  55 H     1.0000    0     1.008   10.600196    6.799300    0.967938
  56 H     1.0000    0     1.008    8.533639    9.626288   -2.184172
  57 H     1.0000    0     1.008    4.610183    8.213506   -4.379825
  58 H     1.0000    0     1.008    2.756751    3.990196   -3.392673
  59 H     1.0000    0     1.008    4.044292   -5.442957   -1.215542
  60 H     1.0000    0     1.008    8.823538    0.735374   -3.533811
  61 H     1.0000    0     1.008   11.339588   -2.201629   -6.171600
  62 H     1.0000    0     1.008    6.599720   -8.400065   -3.810582
  63 H     1.0000    0     1.008   10.257684   -6.783317   -6.312717
  64 H     1.0000    0     1.008    8.563520   -3.320811    1.912544
  65 H     1.0000    0     1.008    2.562801    1.436074    4.690009
  66 H     1.0000    0     1.008    3.916583    0.558073    9.115570
  67 H     1.0000    0     1.008    7.595120   -2.277086    9.931757
  68 H     1.0000    0     1.008    9.908040   -4.206195    6.310921
  69 H     1.0000    0     1.008   -0.130188   -3.572917   -1.481674
  70 H     1.0000    0     1.008   -0.007648   -2.558205   -2.817234
  71 H     1.0000    0     1.008   -0.027336    1.016374   -2.875492
  72 H     1.0000    0     1.008    0.027980    2.221822    1.134245
* core charge reduced due to ECP

--------------------------------
INTERNAL COORDINATES (ANGSTROEM)
--------------------------------
 Ru     0   0   0     0.000000000000     0.00000000     0.00000000
 P      1   0   0     2.289799166789     0.00000000     0.00000000
 P      1   2   0     2.292534582579   168.98421915     0.00000000
 C      2   1   3     1.838736457018   111.24219099   272.44986198
 C      2   1   3     4.642770558395   116.10790885   155.47541185
 C      5   2   1     1.398426233765    58.71306618    57.05574078
 C      6   5   2     1.392267854940   119.99361705     0.37037397
 C      2   1   3     1.832734611710   118.06462740    29.97699379
 C      8   2   1     1.397916053473   119.30840243    20.85873310
 C      9   8   2     1.396687743667   120.28108353   178.30603337
 C     10   9   8     1.394908157794   120.12180598     0.48175609
 C     11  10   9     1.397588127595   119.86767156     0.07825453
 C     12  11  10     1.394071541387   119.99464072   359.68824182
 C      3   1   2     1.832588005570   117.32647106   325.86722496
 C      4   2   1     1.402617907346   116.76292633    39.35299026
 C     14   3   1     1.399259090719   118.75244986   324.94466271
 C     16  14   3     1.395173769764   120.38052826   182.34025332
 C     17  16  14     1.396185697365   120.08609244   359.40262996
 C     18  17  16     1.396181093999   119.81692472     0.09150337
 C     19  18  17     1.395737673575   120.08347614     0.30911106
 C      3   1   2     1.837789455451   119.62820700   201.09075804
 C     21   3   1     1.402315371587   117.47688465   314.36089868
 C     22  21   3     1.393042617398   120.70740154   180.72890075
 C     23  22  21     1.397759296348   119.97535711   359.06887165
 C     24  23  22     1.394144516068   119.69904182     0.24497982
 C     15   4   2     1.394513919788   120.54057553   180.11178981
 C     25  24  23     1.397903599630   120.27559947     0.41544504
 C      3   1   2     1.839070310898   110.89331798    82.63733012
 C     28   3   1     1.403457563248   117.04096496   314.35337873
 C     29  28   3     1.394082091142   120.50094560   179.75955819
 C     30  29  28     1.397040798014   120.06745265   359.68827635
 C     31  30  29     1.395104369818   119.74255893     0.22739937
 C     32  31  30     1.397169130050   120.25695676     0.00000000
 C     26  15   4     1.396505718999   120.02205960     0.16919968
 C     34  26  15     1.395661473331   119.77792818   359.93972569
 C     35  34  26     1.396544594298   120.22651151     0.00000000
 C      7   6   5     1.403152523758   120.70857071     0.99347970
 C     37   7   6     1.397796424848   118.95802110   358.85114590
 C      5   2   1     1.393476349793    60.96288936   236.52326625
 H      9   8   2     1.092205840941   118.81050611   357.18604898
 H     10   9   8     1.093844494829   119.75807847   179.91424078
 H     11  10   9     1.094075388644   120.11922418   179.62919479
 H     12  11  10     1.093861107041   120.13848645   179.44588458
 H     13  12  11     1.093484740500   119.60956647   179.75641107
 H      7   6   5     1.094487292112   119.75396628   180.74305268
 H      6   5   2     1.093898315144   120.13394668   180.82628679
 H      5   2   1     1.093865955894   178.64521616    25.17121406
 H     39   5   2     1.093891241963   120.10883993   179.01856549
 H     38  37   7     1.092304749833   120.09062121   180.70628590
 H     36  35  34     1.093124977167   119.64073199   179.68493278
 H     15   4   2     1.094771792620   119.08813258     0.48915274
 H     26  15   4     1.093852593385   119.82909733   179.96707789
 H     34  26  15     1.093912959643   120.12944969   179.77967112
 H     35  34  26     1.093957600313   120.06722122   179.92306293
 H     20  19  18     1.093332147838   119.67465763   179.99590860
 H     19  18  17     1.093889383961   120.12456854   180.42416024
 H     18  17  16     1.094019002591   120.11978531   180.46106708
 H     17  16  14     1.093885150020   119.80399336   179.93061122
 H     16  14   3     1.092690831071   118.96971650     3.05072490
 H     22  21   3     1.094013217153   119.43009141     0.57792857
 H     27  25  24     1.092307693936   119.53856869   179.80208848
 H     25  24  23     1.093891397017   120.09507779   180.39193854
 H     23  22  21     1.093884568885   119.86992044   179.58280324
 H     24  23  22     1.093894069817   120.13597764   180.54411890
 H     33  32  31     1.092756133122   119.61554591   179.79266486
 H     29  28   3     1.094299988953   119.03803789   359.25543562
 H     30  29  28     1.093954127297   119.81359863   179.77627591
 H     31  30  29     1.093924321749   120.14452831   180.24130924
 H     32  31  30     1.093945227560   120.08313103   179.91144295
 H      1   2   8     1.741516545386    93.79961859   207.29775076
 H     70   1   2     0.889958587552    72.70015975    93.56676227
 H      1   2   8     1.551497931106    88.54164949   307.94249797
 H      1   2   8     1.634114537132    85.18044911    36.16620798

---------------------------
INTERNAL COORDINATES (A.U.)
---------------------------
 Ru     0   0   0     0.000000000000     0.00000000     0.00000000
 P      1   0   0     4.327093326912     0.00000000     0.00000000
 P      1   2   0     4.332262513617   168.98421915     0.00000000
 C      2   1   3     3.474708336221   111.24219099   272.44986198
 C      2   1   3     8.773564858000   116.10790885   155.47541185
 C      5   2   1     2.642642600306    58.71306618    57.05574078
 C      6   5   2     2.631004950899   119.99361705     0.37037397
 C      2   1   3     3.463366492290   118.06462740    29.97699379
 C      8   2   1     2.641678499276   119.30840243    20.85873310
 C      9   8   2     2.639357330135   120.28108353   178.30603337
 C     10   9   8     2.635994400203   120.12180598     0.48175609
 C     11  10   9     2.641058809175   119.86767156     0.07825453
 C     12  11  10     2.634413424314   119.99464072   359.68824182
 C      3   1   2     3.463089446836   117.32647106   325.86722496
 C      4   2   1     2.650563715419   116.76292633    39.35299026
 C     14   3   1     2.644216471859   118.75244986   324.94466271
 C     16  14   3     2.636496334084   120.38052826   182.34025332
 C     17  16  14     2.638408600119   120.08609244   359.40262996
 C     18  17  16     2.638399901017   119.81692472     0.09150337
 C     19  18  17     2.637561957853   120.08347614     0.30911106
 C      3   1   2     3.472918762611   119.62820700   201.09075804
 C     21   3   1     2.649992005688   117.47688465   314.36089868
 C     22  21   3     2.632469039763   120.70740154   180.72890075
 C     23  22  21     2.641382271240   119.97535711   359.06887165
 C     24  23  22     2.634551326476   119.69904182     0.24497982
 C     15   4   2     2.635249398340   120.54057553   180.11178981
 C     25  24  23     2.641654964924   120.27559947     0.41544504
 C      3   1   2     3.475339228623   110.89331798    82.63733012
 C     28   3   1     2.652150435120   117.04096496   314.35337873
 C     29  28   3     2.634433360463   120.50094560   179.75955819
 C     30  29  28     2.640024506161   120.06745265   359.68827635
 C     31  30  29     2.636365187192   119.74255893     0.22739937
 C     32  31  30     2.640267018563   120.25695676     0.00000000
 C     26  15   4     2.639013353363   120.02205960     0.16919968
 C     34  26  15     2.637417960261   119.77792818   359.93972569
 C     35  34  26     2.639086817030   120.22651151     0.00000000
 C      7   6   5     2.651573994022   120.70857071     0.99347970
 C     37   7   6     2.641452433936   118.95802110   358.85114590
 C      5   2   1     2.633288675205    60.96288936   236.52326625
 H      9   8   2     2.063969921248   118.81050611   357.18604898
 H     10   9   8     2.067066528325   119.75807847   179.91424078
 H     11  10   9     2.067502854400   120.11922418   179.62919479
 H     12  11  10     2.067097920856   120.13848645   179.44588458
 H     13  12  11     2.066386691166   119.60956647   179.75641107
 H      7   6   5     2.068281239149   119.75396628   180.74305268
 H      6   5   2     2.067168233980   120.13394668   180.82628679
 H      5   2   1     2.067107083859   178.64521616    25.17121406
 H     39   5   2     2.067154867606   120.10883993   179.01856549
 H     38  37   7     2.064156831966   120.09062121   180.70628590
 H     36  35  34     2.065706836995   119.64073199   179.68493278
 H     15   4   2     2.068818867193   119.08813258     0.48915274
 H     26  15   4     2.067081832377   119.82909733   179.96707789
 H     34  26  15     2.067195908072   120.12944969   179.77967112
 H     35  34  26     2.067280266713   120.06722122   179.92306293
 H     20  19  18     2.066098332825   119.67465763   179.99590860
 H     19  18  17     2.067151356490   120.12456854   180.42416024
 H     18  17  16     2.067396300202   120.11978531   180.46106708
 H     17  16  14     2.067143355500   119.80399336   179.93061122
 H     16  14   3     2.064886419771   118.96971650     3.05072490
 H     22  21   3     2.067385367309   119.43009141     0.57792857
 H     27  25  24     2.064162395515   119.53856869   179.80208848
 H     25  24  23     2.067155160615   120.09507779   180.39193854
 H     23  22  21     2.067142257315   119.86992044   179.58280324
 H     24  23  22     2.067160211474   120.13597764   180.54411890
 H     33  32  31     2.065009822763   119.61554591   179.79266486
 H     29  28   3     2.067927287474   119.03803789   359.25543562
 H     30  29  28     2.067273703664   119.81359863   179.77627591
 H     31  30  29     2.067217379341   120.14452831   180.24130924
 H     32  31  30     2.067256885599   120.08313103   179.91144295
 H      1   2   8     3.290989328473    93.79961859   207.29775076
 H     70   1   2     1.681778001004    72.70015975    93.56676227
 H      1   2   8     2.931906187136    88.54164949   307.94249797
 H      1   2   8     3.088028946640    85.18044911    36.16620798

---------------------
BASIS SET INFORMATION
---------------------
There are 4 groups of distinct atoms

 Group   1 Type Ru  : 7s6p5d1f contracted to 5s3p2d1f pattern {31111/411/41/1}
 Group   2 Type P   : 10s7p1d contracted to 4s3p1d pattern {5311/511/1}
 Group   3 Type C   : 7s4p1d contracted to 3s2p1d pattern {511/31/1}
 Group   4 Type H   : 4s1p contracted to 2s1p pattern {31/1}

Atom   0Ru   basis set group =>   1
Atom   1P    basis set group =>   2
Atom   2P    basis set group =>   2
Atom   3C    basis set group =>   3
Atom   4C    basis set group =>   3
Atom   5C    basis set group =>   3
Atom   6C    basis set group =>   3
Atom   7C    basis set group =>   3
Atom   8C    basis set group =>   3
Atom   9C    basis set group =>   3
Atom  10C    basis set group =>   3
Atom  11C    basis set group =>   3
Atom  12C    basis set group =>   3
Atom  13C    basis set group =>   3
Atom  14C    basis set group =>   3
Atom  15C    basis set group =>   3
Atom  16C    basis set group =>   3
Atom  17C    basis set group =>   3
Atom  18C    basis set group =>   3
Atom  19C    basis set group =>   3
Atom  20C    basis set group =>   3
Atom  21C    basis set group =>   3
Atom  22C    basis set group =>   3
Atom  23C    basis set group =>   3
Atom  24C    basis set group =>   3
Atom  25C    basis set group =>   3
Atom  26C    basis set group =>   3
Atom  27C    basis set group =>   3
Atom  28C    basis set group =>   3
Atom  29C    basis set group =>   3
Atom  30C    basis set group =>   3
Atom  31C    basis set group =>   3
Atom  32C    basis set group =>   3
Atom  33C    basis set group =>   3
Atom  34C    basis set group =>   3
Atom  35C    basis set group =>   3
Atom  36C    basis set group =>   3
Atom  37C    basis set group =>   3
Atom  38C    basis set group =>   3
Atom  39H    basis set group =>   4
Atom  40H    basis set group =>   4
Atom  41H    basis set group =>   4
Atom  42H    basis set group =>   4
Atom  43H    basis set group =>   4
Atom  44H    basis set group =>   4
Atom  45H    basis set group =>   4
Atom  46H    basis set group =>   4
Atom  47H    basis set group =>   4
Atom  48H    basis set group =>   4
Atom  49H    basis set group =>   4
Atom  50H    basis set group =>   4
Atom  51H    basis set group =>   4
Atom  52H    basis set group =>   4
Atom  53H    basis set group =>   4
Atom  54H    basis set group =>   4
Atom  55H    basis set group =>   4
Atom  56H    basis set group =>   4
Atom  57H    basis set group =>   4
Atom  58H    basis set group =>   4
Atom  59H    basis set group =>   4
Atom  60H    basis set group =>   4
Atom  61H    basis set group =>   4
Atom  62H    basis set group =>   4
Atom  63H    basis set group =>   4
Atom  64H    basis set group =>   4
Atom  65H    basis set group =>   4
Atom  66H    basis set group =>   4
Atom  67H    basis set group =>   4
Atom  68H    basis set group =>   4
Atom  69H    basis set group =>   4
Atom  70H    basis set group =>   4
Atom  71H    basis set group =>   4
Atom  72H    basis set group =>   4
---------------------------------
AUXILIARY/J BASIS SET INFORMATION
---------------------------------
There are 4 groups of distinct atoms

 Group   1 Type Ru  : 11s5p5d3f3g contracted to 8s5p5d2f3g pattern {41111111/11111/11111/21/111}
 Group   2 Type P   : 14s5p5d2f1g contracted to 8s4p3d1f1g pattern {71111111/2111/311/2/1}
 Group   3 Type C   : 12s5p4d2f1g contracted to 6s4p3d1f1g pattern {711111/2111/211/2/1}
 Group   4 Type H   : 5s2p1d contracted to 3s1p1d pattern {311/2/1}

Atom   0Ru   basis set group =>   1
Atom   1P    basis set group =>   2
Atom   2P    basis set group =>   2
Atom   3C    basis set group =>   3
Atom   4C    basis set group =>   3
Atom   5C    basis set group =>   3
Atom   6C    basis set group =>   3
Atom   7C    basis set group =>   3
Atom   8C    basis set group =>   3
Atom   9C    basis set group =>   3
Atom  10C    basis set group =>   3
Atom  11C    basis set group =>   3
Atom  12C    basis set group =>   3
Atom  13C    basis set group =>   3
Atom  14C    basis set group =>   3
Atom  15C    basis set group =>   3
Atom  16C    basis set group =>   3
Atom  17C    basis set group =>   3
Atom  18C    basis set group =>   3
Atom  19C    basis set group =>   3
Atom  20C    basis set group =>   3
Atom  21C    basis set group =>   3
Atom  22C    basis set group =>   3
Atom  23C    basis set group =>   3
Atom  24C    basis set group =>   3
Atom  25C    basis set group =>   3
Atom  26C    basis set group =>   3
Atom  27C    basis set group =>   3
Atom  28C    basis set group =>   3
Atom  29C    basis set group =>   3
Atom  30C    basis set group =>   3
Atom  31C    basis set group =>   3
Atom  32C    basis set group =>   3
Atom  33C    basis set group =>   3
Atom  34C    basis set group =>   3
Atom  35C    basis set group =>   3
Atom  36C    basis set group =>   3
Atom  37C    basis set group =>   3
Atom  38C    basis set group =>   3
Atom  39H    basis set group =>   4
Atom  40H    basis set group =>   4
Atom  41H    basis set group =>   4
Atom  42H    basis set group =>   4
Atom  43H    basis set group =>   4
Atom  44H    basis set group =>   4
Atom  45H    basis set group =>   4
Atom  46H    basis set group =>   4
Atom  47H    basis set group =>   4
Atom  48H    basis set group =>   4
Atom  49H    basis set group =>   4
Atom  50H    basis set group =>   4
Atom  51H    basis set group =>   4
Atom  52H    basis set group =>   4
Atom  53H    basis set group =>   4
Atom  54H    basis set group =>   4
Atom  55H    basis set group =>   4
Atom  56H    basis set group =>   4
Atom  57H    basis set group =>   4
Atom  58H    basis set group =>   4
Atom  59H    basis set group =>   4
Atom  60H    basis set group =>   4
Atom  61H    basis set group =>   4
Atom  62H    basis set group =>   4
Atom  63H    basis set group =>   4
Atom  64H    basis set group =>   4
Atom  65H    basis set group =>   4
Atom  66H    basis set group =>   4
Atom  67H    basis set group =>   4
Atom  68H    basis set group =>   4
Atom  69H    basis set group =>   4
Atom  70H    basis set group =>   4
Atom  71H    basis set group =>   4
Atom  72H    basis set group =>   4
-------------------------
ECP PARAMETER INFORMATION
-------------------------

 Group 1, Type Ru ECP Def2-ECP (replacing 28 core electrons, lmax=3)

Atom   0Ru   ECP group =>   1

------------------------------------------------------------------------------
                             ORCA STARTUP CALCULATIONS
                           -- RI-GTO INTEGRALS CHOSEN --
------------------------------------------------------------------------------
------------------------------------------------------------------------------
                   ___                                                        
                  /   \      - P O W E R E D   B Y -                         
                 /     \                                                     
                 |  |  |   _    _      __       _____    __    __             
                 |  |  |  | |  | |    /  \     |  _  \  |  |  /  |          
                  \  \/   | |  | |   /    \    | | | |  |  | /  /          
                 / \  \   | |__| |  /  /\  \   | |_| |  |  |/  /          
                |  |  |   |  __  | /  /__\  \  |    /   |      \           
                |  |  |   | |  | | |   __   |  |    \   |  |\   \          
                \     /   | |  | | |  |  |  |  | |\  \  |  | \   \       
                 \___/    |_|  |_| |__|  |__|  |_| \__\ |__|  \__/        
                                                                              
                      - O R C A' S   B I G   F R I E N D -                    
                                      &                                       
                       - I N T E G R A L  F E E D E R -                       
                                                                              
 v1 FN, 2020, v2 2021, v3 2022-2024                                           
------------------------------------------------------------------------------


----------------------
SHARK INTEGRAL PACKAGE
----------------------

Number of atoms                             ...     73
Number of basis functions                   ...    741
Number of shells                            ...    345
Maximum angular momentum                    ...      3
Integral batch strategy                     ... SHARK/LIBINT Hybrid
RI-J (if used) integral strategy            ... SPLIT-RIJ (Revised 2003 algorithm where possible)
Printlevel                                  ...      1
Contraction scheme used                     ... SEGMENTED contraction
Prescreening option                         ... SCHWARTZ
   Thresh                                   ... 1.000e-12
   Tcut                                     ... 1.000e-14
   Tpresel                                  ... 1.000e-14 
Coulomb Range Separation                    ... NOT USED
Exchange Range Separation                   ... NOT USED
Multipole approximations                    ... NOT USED
Finite Nucleus Model                        ... NOT USED
CABS basis                                  ... NOT available
Auxiliary Coulomb fitting basis             ... AVAILABLE
   # of basis functions in Aux-J            ...   2329
   # of shells in Aux-J                     ...    767
   Maximum angular momentum in Aux-J        ...      4
Auxiliary J/K fitting basis                 ... NOT available
Auxiliary Correlation fitting basis         ... NOT available
Auxiliary 'external' fitting basis          ... NOT available

Checking pre-screening integrals            ... done (  0.0 sec) Dimension = 345
   => SHARK Basis and OBASIS are compatible. Storing Pre-screening
Shell pair information
Shell pair cut-off parameter TPreSel        ...   1.0e-14
Total number of shell pairs                 ...     59685
Shell pairs after pre-screening             ...     38428
Total number of primitive shell pairs       ...    216784
Primitive shell pairs kept                  ...     83821
          la=0 lb=0:  12075 shell pairs
          la=1 lb=0:  14425 shell pairs
          la=1 lb=1:   4412 shell pairs
          la=2 lb=0:   4348 shell pairs
          la=2 lb=1:   2551 shell pairs
          la=2 lb=2:    363 shell pairs
          la=3 lb=0:    144 shell pairs
          la=3 lb=1:     83 shell pairs
          la=3 lb=2:     26 shell pairs
          la=3 lb=3:      1 shell pairs

Checking whether 4 symmetric matrices of dimension 741 fit in memory
:Max Core in MB      =   4096.00
 MB in use           =     49.68
 MB left             =   4046.32
 MB needed           =      8.39
 Data fit in memory  = YES
Calculating RI/J V-Matrix + Cholesky decomp.... done (  0.2 sec)
Calculating Nuclear repulsion               ... done (  0.0 sec) ENN=   4820.547114648989 Eh

Diagonalization of the overlap matrix:
Smallest eigenvalue                        ... 2.651e-04
Time for diagonalization                   ...    0.063 sec
Threshold for overlap eigenvalues          ... 1.000e-07
Number of eigenvalues below threshold      ... 0
Time for construction of square roots      ...    0.024 sec
Total time needed                          ...    0.089 sec

-------------------
DFT GRID GENERATION
-------------------

General Integration Accuracy     IntAcc      ... 4.959
Radial Grid Type                 RadialGrid  ... OptM3 with GC (2021)
Angular Grid (max. ang.)         AngularGrid ... 6 (Lebedev-590)
Angular grid pruning method      GridPruning ... 4 (adaptive)
Weight generation scheme         WeightScheme... mBecke (2022)
Basis function cutoff            BFCut       ... 1.0000e-12
Integration weight cutoff        WCut        ... 1.0000e-14
Partially contracted basis set               ... off
Rotationally invariant grid construction     ... off
Angular grids for H and He will be reduced by one unit

Total number of grid points                  ...   843040
Total number of batches                      ...    13208
Average number of points per batch           ...       63
Average number of grid points per atom       ...    11548
Grids setup in  13.3 sec
Initializing property integral containers    ... done (  0.0 sec)

SHARK setup successfully completed in  14.6 seconds

Maximum memory used throughout the entire STARTUP-calculation: 313.0 MB
-------------------------------------------------------------------------------
                                 ORCA GUESS
                   Start orbitals & Density for SCF / CASSCF
-------------------------------------------------------------------------------

------------
SCF SETTINGS
------------
Hamiltonian:
 Density Functional     Method          .... DFT(GTOs)
 Exchange Functional    Exchange        .... B88
   X-Alpha parameter    XAlpha          ....  0.666667
   Becke's b parameter  XBeta           ....  0.004200
 Correlation Functional Correlation     .... P86
 LDA part of GGA corr.  LDAOpt          .... PW91-LDA
 Gradients option       PostSCFGGA      .... off
   NL short-range parameter             ....  4.400000
 RI-approximation to the Coulomb term is turned on
   Number of AuxJ basis functions       .... 2329


General Settings:
 Integral files         IntName         .... 15h_def2svp
 Hartree-Fock type      HFTyp           .... RHF
 Total Charge           Charge          ....    0
 Multiplicity           Mult            ....    1
 Number of Electrons    NEL             ....  296
 Basis Dimension        Dim             ....  741
 Nuclear Repulsion      ENuc            ....   4820.5471146490 Eh

Convergence Acceleration:
 AO-DIIS                CNVDIIS         .... on
   Start iteration      DIISMaxIt       ....    12
   Startup error        DIISStart       ....  0.200000
   # of expansion vecs  DIISMaxEq       ....     5
   Bias factor          DIISBfac        ....   1.050
   Max. coefficient     DIISMaxC        ....  10.000
 MO-DIIS                CNVKDIIS        .... off
 Trust-Rad. Augm. Hess. CNVTRAH         .... auto
   Auto Start mean grad. ratio tolernc. ....  1.125000
   Auto Start start iteration           ....    50
   Auto Start num. interpolation iter.  ....    10
   Max. Number of Micro iterations      ....    24
   Max. Number of Macro iterations      .... Maxiter - #DIIS iter
   Number of Davidson start vectors     ....     2
   Converg. threshold    (grad. norm)   ....   2.000e-06
   Grad. Scal. Fac. for Micro threshold ....   0.100
   Minimum threshold for Micro iter.    ....   1.000e-02
   NR start threshold (gradient norm)   ....   1.000e-04
   Initial trust radius                 ....   0.400
   Minimum AH scaling param. (alpha)    ....   1.000
   Maximum AH scaling param. (alpha)    .... 1000.000
   Quad. conv. algorithm                .... NR
   White noise on init. David. guess    .... on
   Maximum white noise                  ....   0.010
   Pseudo random numbers                .... off
   Inactive MOs                         .... canonical
   Orbital update algorithm             .... Taylor
   Preconditioner                       .... Diag
   Full preconditioner red. dimension   ....   250
 SOSCF                 CNVSOSCF           .... on
   Start iteration     SOSCFMaxIt         ....   150
   Startup grad/error  SOSCFStart         ....  0.003300
   Hessian update      SOSCFHessUp        .... L-BFGS
   Autom. constraints  SOSCFAutoConstrain .... off
 Level Shifting         CNVShift        .... on
   Level shift para.    LevelShift      ....    0.2500
   Turn off err/grad.   ShiftErr        ....    0.0010
 Zerner damping         CNVZerner       .... off
 Static damping         CNVDamp         .... on
   Fraction old density DampFac         ....    0.7000
   Max. Damping (<1)    DampMax         ....    0.9800
   Min. Damping (>=0)   DampMin         ....    0.0000
   Turn off err/grad.   DampErr         ....    0.1000

SCF Procedure:
 Maximum # iterations   MaxIter         ....   125
 SCF integral mode      SCFMode         .... Direct
   Integral package                     .... SHARK and LIBINT hybrid scheme
 Reset frequency        DirectResetFreq ....    20
 Integral Threshold     Thresh          ....  1.000e-12 Eh
 Primitive CutOff       TCut            ....  1.000e-14 Eh

Convergence Tolerance:
 Convergence Check Mode ConvCheckMode   .... Total+1el-Energy
 Convergence forced     ConvForced      .... 0
 Energy Change          TolE            ....  1.000e-09 Eh
 1-El. energy change                    ....  1.000e-06 Eh
 Orbital Gradient       TolG            ....  2.000e-06
 Orbital Rotation angle TolX            ....  2.000e-06
 DIIS Error             TolErr          ....  1.000e-08

------------------------------
INITIAL GUESS: MODEL POTENTIAL
------------------------------
Loading Hartree-Fock densities                     ... done
Atomic calculation to generate a density for atom 0 (Ru with ECP)
  Multiplicity assumed   :    5
  Atomic configuration   : 1s2 2s2 2p6 3s2 3p6 4s2 3d10 4p6 5s2 4d6 
  Number of open shells  : 1
  Command: /cluster/projects/nn14654k/ylvaos/orca_6_1_1_linux_x86-64_shared_openmpi418/orca 15h_def2svp_atom44.inp "" > 15h_def2svp_atom44.out
Returned from the atomic calculation with res=0
Calculating cut-offs                               ... done
Initializing the effective Hamiltonian             ... done
Setting up the integral package (SHARK)            ... done
Starting the Coulomb interaction                   ... done (   2.7 sec)
Making the grid                                    ... done (   1.3 sec)
Mapping shells                                     ... done
Starting the XC term evaluation                    ... done (   1.1 sec)
  promolecular density results
     # of electrons  =    323.974471896
     EX              =   -369.811842044
     EC              =    -12.996460028
     EX+EC           =   -382.808302073
Transforming the Hamiltonian                       ... done (   0.0 sec)
Diagonalizing the Hamiltonian                      ... done (   0.1 sec)
Back transforming the eigenvectors                 ... done (   0.0 sec)
Now organizing SCF variables                       ... done
                      ------------------
                      INITIAL GUESS DONE (   6.5 sec)
                      ------------------
             **** ENERGY FILE WAS UPDATED (15h_def2svp.en.tmp) ****
Finished Guess after   6.6 sec
Maximum memory used throughout the entire GUESS-calculation: 87.8 MB

-------------------------------------------------------------------------------------------
                                      ORCA LEAN-SCF
                              memory conserving SCF solver
-------------------------------------------------------------------------------------------

----------------------------------------D-I-I-S--------------------------------------------
Iteration    Energy (Eh)           Delta-E    RMSDP     MaxDP     DIISErr   Damp  Time(sec)
-------------------------------------------------------------------------------------------
               ***  Starting incremental Fock matrix formation  ***
    1    -2168.2746955775255628     0.00e+00  1.40e-03  7.47e-02  4.72e-01  0.700  14.6
Warning: op=0 Small HOMO/LUMO gap (   0.083) - skipping pre-diagonalization
         Will do a full diagonalization
    2    -2168.5732452587180887    -2.99e-01  9.92e-04  3.78e-02  3.22e-01  0.700  13.6
    3    -2168.6889916271411494    -1.16e-01  4.90e-04  2.10e-02  2.22e-01  0.700  13.7
                               ***Turning on AO-DIIS***
    4    -2168.7519973611524620    -6.30e-02  2.37e-04  1.65e-02  1.55e-01  0.700  13.1
    5    -2168.7980679468664675    -4.61e-02  1.34e-04  1.01e-02  1.08e-01  0.700  12.6
    6    -2168.8303471815133889    -3.23e-02  8.45e-05  8.65e-03  7.61e-02  0.700  12.0
    7    -2168.8528477850268246    -2.25e-02  1.85e-04  1.94e-02  5.32e-02  0.000  10.9
                              *** Initializing SOSCF ***
---------------------------------------S-O-S-C-F--------------------------------------
Iteration    Energy (Eh)           Delta-E    RMSDP     MaxDP     MaxGrad    Time(sec)
--------------------------------------------------------------------------------------
    8    -2168.9051434790144413    -5.23e-02  2.75e-05  1.72e-03  6.62e-04    11.4
               *** Restarting incremental Fock matrix formation ***
    9    -2168.9051503426962881    -6.86e-06  4.73e-05  6.05e-03  5.43e-04    14.6
   10    -2168.9050261257716556     1.24e-04  3.84e-05  5.65e-03  2.36e-03    10.6
   11    -2168.9051570980072938    -1.31e-04  2.42e-05  1.72e-03  1.64e-04    10.3
   12    -2168.9051428859756925     1.42e-05  1.70e-05  1.05e-03  2.82e-04    11.0
   13    -2168.9051606629227535    -1.78e-05  1.09e-05  3.90e-04  7.21e-05    11.3
   14    -2168.9051572910848336     3.37e-06  7.60e-06  3.37e-04  1.36e-04    10.7
   15    -2168.9051615271664559    -4.24e-06  2.33e-06  9.48e-05  2.00e-05     9.9
   16    -2168.9051613476904095     1.79e-07  1.64e-06  7.00e-05  4.84e-05     9.3
   17    -2168.9051615638136354    -2.16e-07  7.03e-07  5.07e-05  3.98e-06     9.1
   18    -2168.9051615533699078     1.04e-08  4.47e-07  2.71e-05  7.75e-06     9.3
   19    -2168.9051615667303849    -1.34e-08  2.04e-07  1.95e-05  1.11e-06     9.2
   20    -2168.9051615640828459     2.65e-09  1.42e-07  1.15e-05  2.90e-06     8.8
   21    -2168.9051615665448480    -2.46e-09  8.67e-08  8.80e-06  6.23e-07     8.6
   22    -2168.9051615681173644    -1.57e-09  5.62e-08  5.16e-06  1.19e-06     8.2
   23    -2168.9051615666330690     1.48e-09  3.93e-08  3.17e-06  2.33e-07     7.9
                  *** Gradient check signals convergence ***

               *****************************************************
               *                     SUCCESS                       *
               *           SCF CONVERGED AFTER  23 CYCLES          *
               *****************************************************

             **** ENERGY FILE WAS UPDATED (15h_def2svp.en.tmp) ****

----------------
TOTAL SCF ENERGY
----------------

Total Energy       :      -2168.90516156722879 Eh          -59018.90991 eV

Components:
Nuclear Repulsion  :       4820.54711464898901 Eh          131173.75573 eV
Electronic Energy  :      -6989.45227621621780 Eh         -190192.66564 eV
One Electron Energy:     -12589.98404713146556 Eh         -342590.88291 eV
Two Electron Energy:       5600.53177091524776 Eh          152398.21726 eV

Virial components:
Potential Energy   :      -4258.17361691828137 Eh         -115870.79487 eV
Kinetic Energy     :       2089.26845535105258 Eh           56851.88496 eV
Virial Ratio       :          2.03811702895921

DFT components:
N(Alpha)           :      148.000009856754 electrons
N(Beta)            :      148.000009856754 electrons
N(Total)           :      296.000019713509 electrons
E(X)               :     -253.470328654761 Eh       
E(C)               :      -11.103521180050 Eh       
E(XC)              :     -264.573849834811 Eh       

---------------
SCF CONVERGENCE
---------------

  Last Energy change         ...   -1.4843e-09  Tolerance :   1.0000e-09
  Last MAX-Density change    ...    3.1673e-06  Tolerance :   1.0000e-08
  Last RMS-Density change    ...    3.9264e-08  Tolerance :   1.0000e-09
  Last DIIS Error            ...    6.6184e-04  Tolerance :   1.0000e-08
  Last Orbital Gradient      ...    2.3268e-07  Tolerance :   2.0000e-06
  Last Orbital Rotation      ...    7.7761e-07  Tolerance :   2.0000e-06


----------------
ORBITAL ENERGIES
----------------

  NO   OCC          E(Eh)            E(eV) 
   0   2.0000     -76.367595     -2078.0679 
   1   2.0000     -76.367430     -2078.0634 
   2   2.0000      -9.922226      -269.9975 
   3   2.0000      -9.921769      -269.9851 
   4   2.0000      -9.920373      -269.9471 
   5   2.0000      -9.920202      -269.9424 
   6   2.0000      -9.920186      -269.9420 
   7   2.0000      -9.920177      -269.9417 
   8   2.0000      -9.919935      -269.9352 
   9   2.0000      -9.919755      -269.9303 
  10   2.0000      -9.919734      -269.9297 
  11   2.0000      -9.919471      -269.9225 
  12   2.0000      -9.919401      -269.9206 
  13   2.0000      -9.919223      -269.9158 
  14   2.0000      -9.919122      -269.9130 
  15   2.0000      -9.918924      -269.9077 
  16   2.0000      -9.918889      -269.9067 
  17   2.0000      -9.918707      -269.9017 
  18   2.0000      -9.918693      -269.9014 
  19   2.0000      -9.918662      -269.9005 
  20   2.0000      -9.918624      -269.8995 
  21   2.0000      -9.918595      -269.8987 
  22   2.0000      -9.918507      -269.8963 
  23   2.0000      -9.918440      -269.8945 
  24   2.0000      -9.918414      -269.8938 
  25   2.0000      -9.918362      -269.8923 
  26   2.0000      -9.918264      -269.8897 
  27   2.0000      -9.918228      -269.8887 
  28   2.0000      -9.918222      -269.8885 
  29   2.0000      -9.917840      -269.8781 
  30   2.0000      -9.917669      -269.8735 
  31   2.0000      -9.917611      -269.8719 
  32   2.0000      -9.917479      -269.8683 
  33   2.0000      -9.917362      -269.8652 
  34   2.0000      -9.916987      -269.8549 
  35   2.0000      -9.915761      -269.8216 
  36   2.0000      -9.915548      -269.8158 
  37   2.0000      -9.913685      -269.7651 
  38   2.0000      -6.331302      -172.2835 
  39   2.0000      -6.331179      -172.2801 
  40   2.0000      -4.552938      -123.8918 
  41   2.0000      -4.552823      -123.8886 
  42   2.0000      -4.552709      -123.8855 
  43   2.0000      -4.552564      -123.8816 
  44   2.0000      -4.550092      -123.8143 
  45   2.0000      -4.549979      -123.8112 
  46   2.0000      -2.825865       -76.8957 
  47   2.0000      -1.708855       -46.5003 
  48   2.0000      -1.705684       -46.4140 
  49   2.0000      -1.702979       -46.3404 
  50   2.0000      -0.782624       -21.2963 
  51   2.0000      -0.782164       -21.2838 
  52   2.0000      -0.774213       -21.0674 
  53   2.0000      -0.773987       -21.0612 
  54   2.0000      -0.773199       -21.0398 
  55   2.0000      -0.772537       -21.0218 
  56   2.0000      -0.701961       -19.1013 
  57   2.0000      -0.701086       -19.0775 
  58   2.0000      -0.673836       -18.3360 
  59   2.0000      -0.673583       -18.3291 
  60   2.0000      -0.672576       -18.3017 
  61   2.0000      -0.672359       -18.2958 
  62   2.0000      -0.670946       -18.2574 
  63   2.0000      -0.669999       -18.2316 
  64   2.0000      -0.668038       -18.1782 
  65   2.0000      -0.667894       -18.1743 
  66   2.0000      -0.666928       -18.1480 
  67   2.0000      -0.666355       -18.1324 
  68   2.0000      -0.592089       -16.1116 
  69   2.0000      -0.589621       -16.0444 
  70   2.0000      -0.547535       -14.8992 
  71   2.0000      -0.547089       -14.8871 
  72   2.0000      -0.544677       -14.8214 
  73   2.0000      -0.543969       -14.8022 
  74   2.0000      -0.543646       -14.7934 
  75   2.0000      -0.541747       -14.7417 
  76   2.0000      -0.534351       -14.5404 
  77   2.0000      -0.533949       -14.5295 
  78   2.0000      -0.532853       -14.4997 
  79   2.0000      -0.532010       -14.4767 
  80   2.0000      -0.505498       -13.7553 
  81   2.0000      -0.503045       -13.6885 
  82   2.0000      -0.468859       -12.7583 
  83   2.0000      -0.468051       -12.7363 
  84   2.0000      -0.467440       -12.7197 
  85   2.0000      -0.466225       -12.6866 
  86   2.0000      -0.446987       -12.1631 
  87   2.0000      -0.443911       -12.0794 
  88   2.0000      -0.421163       -11.4604 
  89   2.0000      -0.411520       -11.1980 
  90   2.0000      -0.411229       -11.1901 
  91   2.0000      -0.409295       -11.1375 
  92   2.0000      -0.408503       -11.1159 
  93   2.0000      -0.407524       -11.0893 
  94   2.0000      -0.406662       -11.0658 
  95   2.0000      -0.400086       -10.8869 
  96   2.0000      -0.399204       -10.8629 
  97   2.0000      -0.398547       -10.8450 
  98   2.0000      -0.397317       -10.8115 
  99   2.0000      -0.392783       -10.6882 
 100   2.0000      -0.391832       -10.6623 
 101   2.0000      -0.378746       -10.3062 
 102   2.0000      -0.376604       -10.2479 
 103   2.0000      -0.376370       -10.2416 
 104   2.0000      -0.375995       -10.2313 
 105   2.0000      -0.375920       -10.2293 
 106   2.0000      -0.373647       -10.1675 
 107   2.0000      -0.368826       -10.0363 
 108   2.0000      -0.368010       -10.0140 
 109   2.0000      -0.365807        -9.9541 
 110   2.0000      -0.364042        -9.9061 
 111   2.0000      -0.343305        -9.3418 
 112   2.0000      -0.337032        -9.1711 
 113   2.0000      -0.335393        -9.1265 
 114   2.0000      -0.334403        -9.0996 
 115   2.0000      -0.331172        -9.0117 
 116   2.0000      -0.329944        -8.9782 
 117   2.0000      -0.327475        -8.9111 
 118   2.0000      -0.324108        -8.8194 
 119   2.0000      -0.308026        -8.3818 
 120   2.0000      -0.305869        -8.3231 
 121   2.0000      -0.305709        -8.3188 
 122   2.0000      -0.304547        -8.2871 
 123   2.0000      -0.303933        -8.2704 
 124   2.0000      -0.301847        -8.2137 
 125   2.0000      -0.297803        -8.1036 
 126   2.0000      -0.291910        -7.9433 
 127   2.0000      -0.291614        -7.9352 
 128   2.0000      -0.289331        -7.8731 
 129   2.0000      -0.288224        -7.8430 
 130   2.0000      -0.269559        -7.3351 
 131   2.0000      -0.257867        -7.0169 
 132   2.0000      -0.242336        -6.5943 
 133   2.0000      -0.240343        -6.5401 
 134   2.0000      -0.239836        -6.5263 
 135   2.0000      -0.237790        -6.4706 
 136   2.0000      -0.236644        -6.4394 
 137   2.0000      -0.234269        -6.3748 
 138   2.0000      -0.232921        -6.3381 
 139   2.0000      -0.230720        -6.2782 
 140   2.0000      -0.229585        -6.2473 
 141   2.0000      -0.228240        -6.2107 
 142   2.0000      -0.226454        -6.1621 
 143   2.0000      -0.218936        -5.9575 
 144   2.0000      -0.206766        -5.6264 
 145   2.0000      -0.179086        -4.8732 
 146   2.0000      -0.172107        -4.6833 
 147   2.0000      -0.166633        -4.5343 
 148   0.0000      -0.077236        -2.1017 
 149   0.0000      -0.059827        -1.6280 
 150   0.0000      -0.056559        -1.5391 
 151   0.0000      -0.053778        -1.4634 
 152   0.0000      -0.053539        -1.4569 
 153   0.0000      -0.051152        -1.3919 
 154   0.0000      -0.048843        -1.3291 
 155   0.0000      -0.046170        -1.2563 
 156   0.0000      -0.041955        -1.1417 
 157   0.0000      -0.036766        -1.0005 
 158   0.0000      -0.035931        -0.9777 
*Only the first 10 virtual orbitals were printed.

                    ********************************
                    * MULLIKEN POPULATION ANALYSIS *
                    ********************************

-----------------------
MULLIKEN ATOMIC CHARGES
-----------------------
   0 Ru:   -0.470034
   1 P :    0.393458
   2 P :    0.389122
   3 C :   -0.091001
   4 C :    0.009249
   5 C :    0.006282
   6 C :   -0.007089
   7 C :   -0.077643
   8 C :    0.028681
   9 C :    0.005494
  10 C :    0.009175
  11 C :    0.009227
  12 C :   -0.002475
  13 C :   -0.088481
  14 C :    0.013017
  15 C :    0.031107
  16 C :    0.004554
  17 C :    0.009722
  18 C :    0.009423
  19 C :   -0.004033
  20 C :   -0.092958
  21 C :   -0.000970
  22 C :    0.008180
  23 C :    0.009625
  24 C :    0.009804
  25 C :    0.011924
  26 C :   -0.002778
  27 C :   -0.103410
  28 C :    0.010759
  29 C :    0.008429
  30 C :    0.009802
  31 C :    0.009011
  32 C :   -0.008079
  33 C :    0.009603
  34 C :    0.008440
  35 C :   -0.013604
  36 C :   -0.087291
  37 C :   -0.002094
  38 C :    0.008001
  39 H :    0.012554
  40 H :   -0.003495
  41 H :   -0.000485
  42 H :   -0.003190
  43 H :   -0.005794
  44 H :    0.010229
  45 H :   -0.002430
  46 H :   -0.001123
  47 H :   -0.002978
  48 H :    0.013978
  49 H :    0.013898
  50 H :    0.013703
  51 H :   -0.002002
  52 H :   -0.000245
  53 H :   -0.002864
  54 H :    0.005608
  55 H :   -0.002846
  56 H :   -0.000595
  57 H :   -0.003582
  58 H :    0.011479
  59 H :    0.006528
  60 H :    0.012921
  61 H :   -0.002901
  62 H :   -0.002054
  63 H :   -0.000516
  64 H :    0.012820
  65 H :    0.019338
  66 H :   -0.001991
  67 H :   -0.000488
  68 H :   -0.002632
  69 H :   -0.021428
  70 H :    0.073067
  71 H :   -0.015252
  72 H :   -0.097384
Sum of atomic charges:   -0.0000000

--------------------------------
MULLIKEN REDUCED ORBITAL CHARGES
--------------------------------
  0 Rus       :     2.558946  s :     2.558946
      pz      :     2.121353  p :     6.526877
      px      :     2.184701
      py      :     2.220823
      dz2     :     1.369514  d :     7.378100
      dxz     :     1.794343
      dyz     :     1.235175
      dx2y2   :     1.208024
      dxy     :     1.771042
      f0      :     0.000604  f :     0.006111
      f+1     :     0.000843
      f-1     :     0.001068
      f+2     :     0.001476
      f-2     :     0.000014
      f+3     :     0.001330
      f-3     :     0.000776

  1 P s       :     5.379485  s :     5.379485
      pz      :     2.871985  p :     8.972715
      px      :     3.201447
      py      :     2.899283
      dz2     :     0.044742  d :     0.254342
      dxz     :     0.063428
      dyz     :     0.044935
      dx2y2   :     0.037040
      dxy     :     0.064197

  2 P s       :     5.376698  s :     5.376698
      pz      :     2.880247  p :     8.979979
      px      :     3.201808
      py      :     2.897924
      dz2     :     0.048395  d :     0.254202
      dxz     :     0.061076
      dyz     :     0.041189
      dx2y2   :     0.036267
      dxy     :     0.067274

  3 C s       :     3.070948  s :     3.070948
      pz      :     0.998528  p :     2.985563
      px      :     0.978411
      py      :     1.008624
      dz2     :     0.008204  d :     0.034489
      dxz     :     0.009784
      dyz     :     0.005437
      dx2y2   :     0.005927
      dxy     :     0.005138

  4 C s       :     3.172001  s :     3.172001
      pz      :     0.918064  p :     2.786048
      px      :     0.941303
      py      :     0.926682
      dz2     :     0.004926  d :     0.032702
      dxz     :     0.004001
      dyz     :     0.008953
      dx2y2   :     0.006817
      dxy     :     0.008005

  5 C s       :     3.173206  s :     3.173206
      pz      :     0.974104  p :     2.787700
      px      :     0.973974
      py      :     0.839622
      dz2     :     0.007505  d :     0.032813
      dxz     :     0.005308
      dyz     :     0.006388
      dx2y2   :     0.007991
      dxy     :     0.005622

  6 C s       :     3.233862  s :     3.233862
      pz      :     0.890286  p :     2.740331
      px      :     0.914924
      py      :     0.935121
      dz2     :     0.004904  d :     0.032896
      dxz     :     0.004203
      dyz     :     0.008778
      dx2y2   :     0.007170
      dxy     :     0.007841

  7 C s       :     3.065264  s :     3.065264
      pz      :     1.017286  p :     2.978064
      px      :     0.977749
      py      :     0.983029
      dz2     :     0.004452  d :     0.034315
      dxz     :     0.005821
      dyz     :     0.004132
      dx2y2   :     0.009936
      dxy     :     0.009974

  8 C s       :     3.229096  s :     3.229096
      pz      :     0.942014  p :     2.709552
      px      :     0.859463
      py      :     0.908075
      dz2     :     0.003380  d :     0.032671
      dxz     :     0.003491
      dyz     :     0.006370
      dx2y2   :     0.010230
      dxy     :     0.009199

  9 C s       :     3.178900  s :     3.178900
      pz      :     0.960948  p :     2.782974
      px      :     0.918475
      py      :     0.903550
      dz2     :     0.002696  d :     0.032633
      dxz     :     0.005009
      dyz     :     0.005118
      dx2y2   :     0.009123
      dxy     :     0.010686

 10 C s       :     3.172442  s :     3.172442
      pz      :     0.973177  p :     2.785615
      px      :     0.948643
      py      :     0.863795
      dz2     :     0.004156  d :     0.032768
      dxz     :     0.005752
      dyz     :     0.003638
      dx2y2   :     0.009562
      dxy     :     0.009661

 11 C s       :     3.171655  s :     3.171655
      pz      :     0.970574  p :     2.786456
      px      :     0.855243
      py      :     0.960639
      dz2     :     0.003409  d :     0.032663
      dxz     :     0.003521
      dyz     :     0.006415
      dx2y2   :     0.010428
      dxy     :     0.008890

 12 C s       :     3.234398  s :     3.234398
      pz      :     0.945253  p :     2.735096
      px      :     0.929223
      py      :     0.860620
      dz2     :     0.002762  d :     0.032982
      dxz     :     0.005159
      dyz     :     0.005382
      dx2y2   :     0.009030
      dxy     :     0.010648

 13 C s       :     3.074826  s :     3.074826
      pz      :     1.013072  p :     2.979258
      px      :     0.979061
      py      :     0.987125
      dz2     :     0.006567  d :     0.034397
      dxz     :     0.006059
      dyz     :     0.005479
      dx2y2   :     0.008136
      dxy     :     0.008157

 14 C s       :     3.222100  s :     3.222100
      pz      :     0.918162  p :     2.732186
      px      :     0.889296
      py      :     0.924728
      dz2     :     0.010247  d :     0.032697
      dxz     :     0.008981
      dyz     :     0.007102
      dx2y2   :     0.002594
      dxy     :     0.003772

 15 C s       :     3.217005  s :     3.217005
      pz      :     0.942491  p :     2.719164
      px      :     0.878945
      py      :     0.897728
      dz2     :     0.004982  d :     0.032724
      dxz     :     0.004923
      dyz     :     0.007064
      dx2y2   :     0.008023
      dxy     :     0.007732

 16 C s       :     3.178159  s :     3.178159
      pz      :     0.922525  p :     2.784605
      px      :     0.939241
      py      :     0.922840
      dz2     :     0.004050  d :     0.032681
      dxz     :     0.005290
      dyz     :     0.006818
      dx2y2   :     0.007980
      dxy     :     0.008543

 17 C s       :     3.172441  s :     3.172441
      pz      :     0.968640  p :     2.785097
      px      :     0.947667
      py      :     0.868791
      dz2     :     0.006396  d :     0.032739
      dxz     :     0.006072
      dyz     :     0.005172
      dx2y2   :     0.007504
      dxy     :     0.007596

 18 C s       :     3.172321  s :     3.172321
      pz      :     0.945623  p :     2.785581
      px      :     0.882007
      py      :     0.957951
      dz2     :     0.005007  d :     0.032674
      dxz     :     0.004999
      dyz     :     0.007217
      dx2y2   :     0.007946
      dxy     :     0.007506

 19 C s       :     3.238311  s :     3.238311
      pz      :     0.915308  p :     2.732805
      px      :     0.939988
      py      :     0.877509
      dz2     :     0.004075  d :     0.032916
      dxz     :     0.005384
      dyz     :     0.006914
      dx2y2   :     0.008029
      dxy     :     0.008516

 20 C s       :     3.072844  s :     3.072844
      pz      :     1.001242  p :     2.985698
      px      :     0.985954
      py      :     0.998503
      dz2     :     0.004563  d :     0.034416
      dxz     :     0.004807
      dyz     :     0.007355
      dx2y2   :     0.008726
      dxy     :     0.008966

 21 C s       :     3.231875  s :     3.231875
      pz      :     0.911472  p :     2.736254
      px      :     0.887113
      py      :     0.937668
      dz2     :     0.004029  d :     0.032841
      dxz     :     0.004156
      dyz     :     0.007639
      dx2y2   :     0.008458
      dxy     :     0.008559

 22 C s       :     3.173674  s :     3.173674
      pz      :     0.978302  p :     2.785369
      px      :     0.961870
      py      :     0.845198
      dz2     :     0.006037  d :     0.032777
      dxz     :     0.005366
      dyz     :     0.005084
      dx2y2   :     0.009011
      dxy     :     0.007278

 23 C s       :     3.172283  s :     3.172283
      pz      :     0.934219  p :     2.785375
      px      :     0.930327
      py      :     0.920829
      dz2     :     0.003863  d :     0.032717
      dxz     :     0.004320
      dyz     :     0.007494
      dx2y2   :     0.007858
      dxy     :     0.009183

 24 C s       :     3.172070  s :     3.172070
      pz      :     0.947798  p :     2.785414
      px      :     0.898551
      py      :     0.939065
      dz2     :     0.004037  d :     0.032712
      dxz     :     0.004147
[...]
      pz      :     0.026138  p :     0.066900
      px      :     0.018215
      py      :     0.022547

 58 H s       :     0.885992  s :     0.885992
      pz      :     0.018602  p :     0.071508
      px      :     0.036959
      py      :     0.015947

 59 H s       :     0.893441  s :     0.893441
      pz      :     0.022084  p :     0.069701
      px      :     0.032802
      py      :     0.014815

 60 H s       :     0.894853  s :     0.894853
      pz      :     0.013471  p :     0.070826
      px      :     0.014173
      py      :     0.043182

 61 H s       :     0.901108  s :     0.901108
      pz      :     0.021625  p :     0.066955
      px      :     0.030251
      py      :     0.015078

 62 H s       :     0.900895  s :     0.900895
      pz      :     0.013056  p :     0.066901
      px      :     0.014081
      py      :     0.039763

 63 H s       :     0.901646  s :     0.901646
      pz      :     0.022573  p :     0.066939
      px      :     0.021147
      py      :     0.023219

 64 H s       :     0.895461  s :     0.895461
      pz      :     0.031767  p :     0.070489
      px      :     0.020124
      py      :     0.018598

 65 H s       :     0.884924  s :     0.884924
      pz      :     0.013237  p :     0.071598
      px      :     0.033261
      py      :     0.025100

 66 H s       :     0.900969  s :     0.900969
      pz      :     0.028863  p :     0.066874
      px      :     0.019718
      py      :     0.018292

 67 H s       :     0.901660  s :     0.901660
      pz      :     0.037802  p :     0.066949
      px      :     0.014929
      py      :     0.014217

 68 H s       :     0.901078  s :     0.901078
      pz      :     0.012153  p :     0.066962
      px      :     0.030828
      py      :     0.023980

 69 H s       :     0.853897  s :     0.853897
      pz      :     0.036436  p :     0.068297
      px      :     0.011144
      py      :     0.020717

 70 H s       :     0.809910  s :     0.809910
      pz      :     0.029296  p :     0.077466
      px      :     0.011753
      py      :     0.036416

 71 H s       :     0.895279  s :     0.895279
      pz      :     0.024131  p :     0.062910
      px      :     0.019165
      py      :     0.019615

 72 H s       :     1.000458  s :     1.000458
      pz      :     0.011052  p :     0.039884
      px      :     0.012915
      py      :     0.015918



                      *****************************
                      * MAYER POPULATION ANALYSIS *
                      *****************************

  NA   - Mulliken gross atomic population
  ZA   - Total nuclear charge
  QA   - Mulliken gross atomic charge
  VA   - Mayer's total valence
  BVA  - Mayer's bonded valence
  FA   - Mayer's free valence

  ATOM       NA         ZA         QA         VA         BVA        FA
  0 Ru    16.4700    16.0000    -0.4700     4.8055     4.8055    -0.0000
  1 P     14.6065    15.0000     0.3935     3.9798     3.9798     0.0000
  2 P     14.6109    15.0000     0.3891     3.9747     3.9747    -0.0000
  3 C      6.0910     6.0000    -0.0910     3.8502     3.8502    -0.0000
  4 C      5.9908     6.0000     0.0092     3.8194     3.8194    -0.0000
  5 C      5.9937     6.0000     0.0063     3.8499     3.8499    -0.0000
  6 C      6.0071     6.0000    -0.0071     3.8842     3.8842     0.0000
  7 C      6.0776     6.0000    -0.0776     3.8315     3.8315    -0.0000
  8 C      5.9713     6.0000     0.0287     3.8763     3.8763    -0.0000
  9 C      5.9945     6.0000     0.0055     3.8267     3.8267     0.0000
 10 C      5.9908     6.0000     0.0092     3.8146     3.8146     0.0000
 11 C      5.9908     6.0000     0.0092     3.8449     3.8449    -0.0000
 12 C      6.0025     6.0000    -0.0025     3.8612     3.8612    -0.0000
 13 C      6.0885     6.0000    -0.0885     3.8411     3.8411     0.0000
 14 C      5.9870     6.0000     0.0130     3.8614     3.8614    -0.0000
 15 C      5.9689     6.0000     0.0311     3.8728     3.8728     0.0000
 16 C      5.9954     6.0000     0.0046     3.8347     3.8347    -0.0000
 17 C      5.9903     6.0000     0.0097     3.8153     3.8153     0.0000
 18 C      5.9906     6.0000     0.0094     3.8350     3.8350    -0.0000
 19 C      6.0040     6.0000    -0.0040     3.8679     3.8679     0.0000
 20 C      6.0930     6.0000    -0.0930     3.8260     3.8260    -0.0000
 21 C      6.0010     6.0000    -0.0010     3.8772     3.8772     0.0000
 22 C      5.9918     6.0000     0.0082     3.8445     3.8445     0.0000
 23 C      5.9904     6.0000     0.0096     3.8176     3.8176     0.0000
 24 C      5.9902     6.0000     0.0098     3.8298     3.8298    -0.0000
 25 C      5.9881     6.0000     0.0119     3.8367     3.8367     0.0000
 26 C      6.0028     6.0000    -0.0028     3.8922     3.8922    -0.0000
 27 C      6.1034     6.0000    -0.1034     3.8482     3.8482    -0.0000
 28 C      5.9892     6.0000     0.0108     3.8570     3.8570    -0.0000
 29 C      5.9916     6.0000     0.0084     3.8381     3.8381     0.0000
 30 C      5.9902     6.0000     0.0098     3.8164     3.8164    -0.0000
 31 C      5.9910     6.0000     0.0090     3.8300     3.8300     0.0000
 32 C      6.0081     6.0000    -0.0081     3.8879     3.8879    -0.0000
 33 C      5.9904     6.0000     0.0096     3.8179     3.8179     0.0000
 34 C      5.9916     6.0000     0.0084     3.8367     3.8367     0.0000
 35 C      6.0136     6.0000    -0.0136     3.8928     3.8928     0.0000
 36 C      6.0873     6.0000    -0.0873     3.8229     3.8229     0.0000
 37 C      6.0021     6.0000    -0.0021     3.8957     3.8957    -0.0000
 38 C      5.9920     6.0000     0.0080     3.8318     3.8318     0.0000
 39 H      0.9874     1.0000     0.0126     1.0059     1.0059    -0.0000
 40 H      1.0035     1.0000    -0.0035     0.9783     0.9783     0.0000
 41 H      1.0005     1.0000    -0.0005     0.9782     0.9782    -0.0000
 42 H      1.0032     1.0000    -0.0032     0.9782     0.9782     0.0000
 43 H      1.0058     1.0000    -0.0058     1.0002     1.0002    -0.0000
 44 H      0.9898     1.0000     0.0102     0.9960     0.9960     0.0000
 45 H      1.0024     1.0000    -0.0024     0.9784     0.9784    -0.0000
 46 H      1.0011     1.0000    -0.0011     0.9784     0.9784     0.0000
 47 H      1.0030     1.0000    -0.0030     0.9786     0.9786     0.0000
 48 H      0.9860     1.0000     0.0140     0.9911     0.9911    -0.0000
 49 H      0.9861     1.0000     0.0139     0.9911     0.9911     0.0000
 50 H      0.9863     1.0000     0.0137     1.0064     1.0064     0.0000
 51 H      1.0020     1.0000    -0.0020     0.9789     0.9789    -0.0000
 52 H      1.0002     1.0000    -0.0002     0.9785     0.9785    -0.0000
 53 H      1.0029     1.0000    -0.0029     0.9787     0.9787     0.0000
 54 H      0.9944     1.0000     0.0056     0.9931     0.9931     0.0000
 55 H      1.0028     1.0000    -0.0028     0.9783     0.9783     0.0000
 56 H      1.0006     1.0000    -0.0006     0.9783     0.9783     0.0000
 57 H      1.0036     1.0000    -0.0036     0.9783     0.9783    -0.0000
 58 H      0.9885     1.0000     0.0115     1.0014     1.0014    -0.0000
 59 H      0.9935     1.0000     0.0065     1.0016     1.0016     0.0000
 60 H      0.9871     1.0000     0.0129     0.9919     0.9919    -0.0000
 61 H      1.0029     1.0000    -0.0029     0.9785     0.9785    -0.0000
 62 H      1.0021     1.0000    -0.0021     0.9783     0.9783     0.0000
 63 H      1.0005     1.0000    -0.0005     0.9784     0.9784    -0.0000
 64 H      0.9872     1.0000     0.0128     0.9912     0.9912     0.0000
 65 H      0.9807     1.0000     0.0193     1.0060     1.0060     0.0000
 66 H      1.0020     1.0000    -0.0020     0.9787     0.9787     0.0000
 67 H      1.0005     1.0000    -0.0005     0.9784     0.9784     0.0000
 68 H      1.0026     1.0000    -0.0026     0.9785     0.9785    -0.0000
 69 H      1.0214     1.0000    -0.0214     1.0148     1.0148     0.0000
 70 H      0.9269     1.0000     0.0731     0.9972     0.9972     0.0000
 71 H      1.0153     1.0000    -0.0153     1.0192     1.0192     0.0000
 72 H      1.0974     1.0000    -0.0974     0.9953     0.9953    -0.0000

  Mayer bond orders larger than 0.100000
B(  0-Ru,  1-P ) :   0.8573 B(  0-Ru,  2-P ) :   0.8423 B(  0-Ru, 69-H ) :   0.4432 
B(  0-Ru, 70-H ) :   0.4324 B(  0-Ru, 71-H ) :   0.9101 B(  0-Ru, 72-H ) :   0.7756 
B(  1-P ,  3-C ) :   0.9373 B(  1-P ,  7-C ) :   0.9474 B(  1-P , 36-C ) :   0.9185 
B(  2-P , 13-C ) :   0.9494 B(  2-P , 20-C ) :   0.9248 B(  2-P , 27-C ) :   0.9367 
B(  3-C , 14-C ) :   1.3657 B(  3-C , 35-C ) :   1.3867 B(  4-C ,  5-C ) :   1.3597 
B(  4-C , 38-C ) :   1.3898 B(  4-C , 46-H ) :   0.9788 B(  5-C ,  6-C ) :   1.4080 
B(  5-C , 45-H ) :   0.9792 B(  6-C , 36-C ) :   1.3466 B(  6-C , 44-H ) :   0.9707 
B(  7-C ,  8-C ) :   1.3981 B(  7-C , 12-C ) :   1.3421 B(  8-C ,  9-C ) :   1.3725 
B(  8-C , 39-H ) :   0.9629 B(  9-C , 10-C ) :   1.3767 B(  9-C , 40-H ) :   0.9803 
B( 10-C , 11-C ) :   1.3683 B( 10-C , 41-H ) :   0.9784 B( 11-C , 12-C ) :   1.3968 
B( 11-C , 42-H ) :   0.9784 B( 12-C , 43-H ) :   0.9732 B( 13-C , 15-C ) :   1.3837 
B( 13-C , 19-C ) :   1.3609 B( 14-C , 25-C ) :   1.3922 B( 14-C , 50-H ) :   0.9555 
B( 15-C , 16-C ) :   1.3859 B( 15-C , 58-H ) :   0.9613 B( 16-C , 17-C ) :   1.3705 
B( 16-C , 57-H ) :   0.9798 B( 17-C , 18-C ) :   1.3756 B( 17-C , 56-H ) :   0.9785 
B( 18-C , 19-C ) :   1.3821 B( 18-C , 55-H ) :   0.9784 B( 19-C , 54-H ) :   0.9729 
B( 20-C , 21-C ) :   1.3519 B( 20-C , 26-C ) :   1.3962 B( 21-C , 22-C ) :   1.4019 
B( 21-C , 59-H ) :   0.9688 B( 22-C , 23-C ) :   1.3628 B( 22-C , 62-H ) :   0.9795 
B( 23-C , 24-C ) :   1.3858 B( 23-C , 63-H ) :   0.9786 B( 24-C , 26-C ) :   1.3711 
B( 24-C , 61-H ) :   0.9763 B( 25-C , 33-C ) :   1.3688 B( 25-C , 51-H ) :   0.9794 
B( 26-C , 60-H ) :   0.9671 B( 27-C , 28-C ) :   1.3567 B( 27-C , 32-C ) :   1.3878 
B( 28-C , 29-C ) :   1.3948 B( 28-C , 65-H ) :   0.9601 B( 29-C , 30-C ) :   1.3658 
B( 29-C , 66-H ) :   0.9797 B( 30-C , 31-C ) :   1.3805 B( 30-C , 67-H ) :   0.9786 
B( 31-C , 32-C ) :   1.3736 B( 31-C , 68-H ) :   0.9770 B( 32-C , 64-H ) :   0.9679 
B( 33-C , 34-C ) :   1.3786 B( 33-C , 52-H ) :   0.9787 B( 34-C , 35-C ) :   1.3789 
B( 34-C , 53-H ) :   0.9771 B( 35-C , 49-H ) :   0.9639 B( 36-C , 37-C ) :   1.4042 
B( 37-C , 38-C ) :   1.3675 B( 37-C , 48-H ) :   0.9663 B( 38-C , 47-H ) :   0.9760 
B( 69-H , 70-H ) :   0.5241 

-------
TIMINGS
-------

Total SCF time: 0 days 0 hours 4 min 18 sec 

Total time                  ....     258.580 sec
Sum of individual times     ....     250.756 sec  ( 97.0%)

SCF preparation             ....       0.100 sec  (  0.0%)
Fock matrix formation       ....     248.030 sec  ( 95.9%)
  Startup                   ....       0.020 sec  (  0.0% of F)
  Split-RI-J                ....     121.241 sec  ( 48.9% of F)
  XC integration            ....     133.927 sec  ( 54.0% of F)
    XC Preparation          ....       0.000 sec  (  0.0% of XC)
    Basis function eval.    ....      46.981 sec  ( 35.1% of XC)
    Density eval.           ....      41.301 sec  ( 30.8% of XC)
    XC-Functional eval.     ....       5.013 sec  (  3.7% of XC)
    XC-Potential eval.      ....      37.858 sec  ( 28.3% of XC)
Diagonalization             ....       0.000 sec  (  0.0%)
Density matrix formation    ....       0.198 sec  (  0.1%)
Total Energy calculation    ....       0.032 sec  (  0.0%)
Population analysis         ....       0.050 sec  (  0.0%)
Orbital Transformation      ....       0.217 sec  (  0.1%)
Orbital Orthonormalization  ....       0.000 sec  (  0.0%)
DIIS solution               ....       1.035 sec  (  0.4%)
SOSCF solution              ....       1.094 sec  (  0.4%)
Finished LeanSCF after 258.6 sec

Maximum memory used throughout the entire LEANSCF-calculation: 187.5 MB

-------------------------   --------------------
FINAL SINGLE POINT ENERGY     -2168.905161567229
-------------------------   --------------------


------------------------------------------------------------------------------
                              ORCA PROPERTY CALCULATIONS
------------------------------------------------------------------------------

GBWName                                 ... 15h_def2svp.gbw
Number of atoms                         ...     73
Number of basis functions               ...    741
Max core memory                         ...   4096 MB

Electric properties:
Dipole moment                           ... YES
Quadrupole moment                       ...  NO
Static polarizability (Dipole/Dipole)   ...  NO
Static polarizability (Dipole/Quad.)    ...  NO
Static polarizability (Quad./Quad.)     ...  NO
Static polarizability (Velocity)        ...  NO
Static hyperpolarizability              ...  NO

Atomic electric properties:
Dipole moment                           ...  NO
Quadrupole moment                       ...  NO
Static polarizability                   ...  NO

Choice of electric origin               ... Center of mass
Position of electric origin             ...    -0.002441    -0.033901     0.016895

General magnetic properties:
Magnetizability                         ...  NO

EPR properties:
g-Tensor (aka g-matrix)                 ...  NO
Zero-Field splitting spin-orbit         ...  NO
Zero-field splitting spin-spin          ...  NO
Hyperfine couplings                     ...  NO (   0 nuclei)
Quadrupole couplings                    ...  NO (   0 nuclei)
Contact density                         ...  NO (   0 nuclei)

NMR properties:
Chemical shifts                         ...  NO (   0 nuclei)
Spin-rotation constants                 ...  NO (   0 nuclei)
Spin-spin couplings                     ...  NO (   0 nuclei,    0 pairs)

Choice of magnetic origin               ... GIAO
Position of magnetic origin             ...     0.000000     0.000000     0.000000

Properties with geometric perturbations:
SCF Hessian                             ...  NO
IR spectrum                             ...  NO
VCD spectrum                            ...  NO
X-ray spectroscopy properties:
SCF XES/XAS/RIXS spectra                ...  NO

SCF SOC stabilization energy            ...  NO
Diagonal Born-Oppenheimer correction    ...  NO

-------------
DIPOLE MOMENT
-------------

Method             : SCF
Type of density    : Electron Density
Multiplicity       :   1
Irrep              :   0
Energy             : -2168.9051615672287880 Eh
Basis              : AO
                                X                 Y                 Z
Electronic contribution:     -0.588864003     -16.404716505     -12.352550397
Nuclear contribution   :      0.614226203      16.192200703      12.592729265
                        -----------------------------------------
Total Dipole Moment    :      0.025362201      -0.212515803       0.240178868
                        -----------------------------------------
Magnitude (a.u.)       :      0.321701875
Magnitude (Debye)      :      0.817701181



--------------------
Rotational spectrum 
--------------------
 
Rotational constants in cm-1:             0.003559             0.001831             0.001814 
Rotational constants in MHz :           106.691148            54.898207            54.385379 

Dipole components along the rotational axes: 
x,y,z [a.u.] :     0.028640    -0.273680    -0.166647 
x,y,z [Debye]:     0.072797    -0.695638    -0.423584 

 

Dipole moment calculation done in   0.0 sec 

Maximum memory used throughout the entire PROP-calculation: 90.2 MB

--------------------------------
SUGGESTED CITATIONS FOR THIS RUN
--------------------------------

Below you find a list of papers that are relevant to this ORCA run
We neither can nor want to force you to cite these papers, but we appreciate if you do
You receive ORCA, which is the product of decades of hard work by many enthusiastic individuals, for free
The only thing we kindly ask in return is that you cite our papers,
We deeply appreciate it, if you show your appreciation for ORCA by not just citing the generic ORCA reference.

Please note that relegating all ORCA citations to the supporting information does *not* help us.
SI sections are not indexed - citations you put there will not count into any citation statistics
But we need these citations in order to attract the funding resources that allow us to do what we are doing

Therefore, if you are a happy ORCA user, please consider citing a few of the papers listed below in the main body of your paper

In addition to the list printed below, the program has created the file 15h_def2svp.bibtex that contains the list in bibtex format
You can import this file easily into all common literature databanks and citation aid programs

It goes without saying that in many instances, there are alternative algorithms to achieve similar
results as the ones you have gotten from ORCA. It is, of course, also the case that in some instances
ORCA just re-implements algorithms worked out by others. We are fully aware of that and we are also
fully appreciative of our colleagues work. Hence this citation list should not be read as indicating
that the listed papers, which are focused on our own work, are the only ones worth citing. It simply
meant to make it easier for users to cite ORCA specific papers. It is not a substitute for doing your
own literature research and citing the relevant literature in a scientifically appropriate manner.

List of essential papers. We consider these as the minimum necessary citations

  1. Neese, F.
     Software update: the ORCA program system, version 6.0
     WIRES Comput. Molec. Sci. 2025 15(1), e70019
     doi.org/10.1002/wcms.70019

List of papers to cite with high priority. The work reported in these papers was absolutely
necessary for this run to complete.
Our perspective: the developers of density functionals and basis sets usually get cited in chemistry papers
Good! But without the algorithms to do something with them, the functionals or basis sets would not do anything.
Hence, in our opinion, the algorithm design and method developments papers are equally worthy of getting cited

  1. Neese, F.
     An improvement of the resolution of the identity approximation for the formation of the Coulomb matrix
     J. Comp. Chem. 2003 24(14), 1740-1747
     doi.org/10.1002/jcc.10318
  2. Neese, F.
     The SHARK Integral Generation and Digestion System
     J. Comp. Chem. 2022 44(3), 381
     doi.org/10.1002/jcc.26942

List of suggested additional citations. These are papers that are important in the 'surrounding' of 
of this run, or papers that preceded the highly important papers. If you like your results we are grateful for a citation.

  1. Neese, F.
     The ORCA program system
     WIRES Comput. Molec. Sci. 2012 2(1), 73-78
     doi.org/10.1002/wcms.81
  2. Neese, F.
     Software update: the ORCA program system, version 4.0
     WIRES Comput. Molec. Sci. 2018 8(1), 1-6
     doi.org/10.1002/wcms.1327
  3. Neese, F.; Wennmohs, F.; Becker, U.; Riplinger, C.
     The ORCA quantum chemistry program package
     J. Chem. Phys. 2020 152(22), 224108
     doi.org/10.1063/5.0004608
  4. Neese, F.
     Software update: The ORCA program system—Version 5.0
     WIRES Comput. Molec. Sci. 2022 12(1), e1606
     doi.org/10.1002/wcms.1606

List of optional additional citations

  1. Neese, F.
     Approximate second-order SCF convergence for spin unrestricted wavefunctions
     Chem. Phys. Lett. 2000 325(1-3), 93-98
     doi.org/10.1016/s0009-2614(00)00662-x

Timings for individual modules:

Sum of individual times          ...      280.044 sec (=   4.667 min)
Startup calculation              ...       14.677 sec (=   0.245 min)   5.2 %
SCF iterations                   ...      265.272 sec (=   4.421 min)  94.7 %
Property calculations            ...        0.095 sec (=   0.002 min)   0.0 %
                             ****ORCA TERMINATED NORMALLY****
TOTAL RUN TIME: 0 days 0 hours 4 minutes 40 seconds 435 msec
