
                                 *****************
                                 * O   R   C   A *
                                 *****************

                                            #,                                       
                                            ###                                      
                                            ####                                     
                                            #####                                    
                                            ######                                   
                                           ########,                                 
                                     ,,################,,,,,                         
                               ,,#################################,,                 
                          ,,##########################################,,             
                       ,#########################################, ''#####,          
                    ,#############################################,,   '####,        
                  ,##################################################,,,,####,       
                ,###########''''           ''''###############################       
              ,#####''   ,,,,##########,,,,          '''####'''          '####       
            ,##' ,,,,###########################,,,                        '##       
           ' ,,###''''                  '''############,,,                           
         ,,##''                                '''############,,,,        ,,,,,,###''
      ,#''                                            '''#######################'''  
     '                                                          ''''####''''         
             ,#######,   #######,   ,#######,      ##                                
            ,#'     '#,  ##    ##  ,#'     '#,    #''#        ,####,    ,#,          
            ##       ##  ##   ,#'  ##            #'  '#       #'       ,# #          
            ##       ##  #######   ##           ,######,      #####,      #          
            '#,     ,#'  ##    ##  '#,     ,#' ,#      #,     #,   #      #          
             '#######'   ##     ##  '#######'  #'      '#     '####' #    #          



                #########################################################
                #                        -***-                          #
                #          Department of theory and spectroscopy        #
                #                                                       #
                #                      Frank Neese                      #
                #                                                       #
                #     Directorship, Architecture, Infrastructure        #
                #                    SHARK, DRIVERS                     #
                #        Core code/Algorithms in most modules           #
                #                                                       #
                #        Max Planck Institute fuer Kohlenforschung      #
                #                Kaiser Wilhelm Platz 1                 #
                #                 D-45470 Muelheim/Ruhr                 #
                #                      Germany                          #
                #                                                       #
                #                  All rights reserved                  #
                #                        -***-                          #
                #########################################################


                         Program Version 6.1.1  -  RELEASE   -
                                (GIT: $487d211c$)
                          ($2025-11-21 10:33:24 +0100$)


 With contributions from (in alphabetic order):
[Max-Planck-Institut fuer Kohlenforschung]                               
  Daniel Aravena         : Magnetic Suceptibility                        
  Michael Atanasov       : Ab Initio Ligand Field Theory (pilot matlab implementation)
  Alexander A. Auer      : GIAO ZORA, VPT2 properties, NMR spectrum      
  Ute Becker             : All parallelization in ORCA, NUMFREQ, NUMCALC 
  Giovanni Bistoni       : ED, misc. LED, open-shell LED, HFLD           
  Dmytro Bykov           : pre 5.0 version of the SCF Hessian            
  Marcos Casanova-Páez   : Triplet and SCS-CIS(D). UHF-(DLPNO)-IP/EA/STEOM-CCSD. UHF-CVS-IP/STEOM-CCSD   
  Vijay G. Chilkuri      : MRCI spin determinant printing, contributions to CSF-ICE 
  Pauline Colinet        : FMM embedding                                 
  Dipayan Datta          : RHF DLPNO-CCSD density                        
  Achintya Kumar Dutta   : EOM-CC, STEOM-CC                              
  Nicolas Foglia         : Exact transition moments, OPA infrastructure, MCD improvements    
  Dmitry Ganyushin       : Spin-Orbit,Spin-Spin,Magnetic field MRCI      
  Miquel Garcia-Rates    : C-PCM and meta-GGA Hessian, CCSD/C-PCM, Gaussian charge scheme 
  Tiago L. C. Gouveia    : GS-ROHF, GS-ROCIS                             
  Yang Guo               : DLPNO-NEVPT2, F12-NEVPT2, CIM, IAO-localization        
  Andreas Hansen         : Spin unrestricted coupled pair/coupled cluster methods 
  Ingolf Harden          : AUTO-CI MPn and infrastructure                
  Benjamin Helmich-Paris : MC-RPA, TRAH-(SCF,CASSCF), AVAS, COSX integrals, SCF dyn. polar., MC-PDFT, srDFT 
  Lee Huntington         : MR-EOM, pCC                                   
  Robert Izsak           : Overlap fitted RIJCOSX, COSX-SCS-MP3, EOM     
  Riya Kayal             : Wick's Theorem for AUTO-CI, AUTO-CI UHF-CCSDT 
  Emily Kempfer          : AUTO-CI RHF CISDT and CCSDT, approximate NEVPT4
  Christian Kollmar      : KDIIS, OOCD, Brueckner-CCSD(T), CCSD density, CASPT2, CASPT2-K, improved NEVPT2 
  Axel Koslowski         : Symmetry handling                             
  Simone Kossmann        : meta-GGA functionals, TD-DFT gradient, OOMP2, (MP2 Hessian; deprecated post 5.0) 
  Lucas Lang             : DCDCAS, Hyperfine gauge corrections, ICE-SOC+SSC
  Marvin Lechner         : AUTO-CI (C++ implementation), FIC-MRCC        
  Spencer Leger          : CASSCF response                               
  Dagmar Lenk            : GEPOL surface, SMD, ORCA-2-JSON               
  Dimitrios Liakos       : Extrapolation schemes; Compound Job, Property file
  Dimitrios Manganas     : Further ROCIS development; embedding schemes. LFT, Crystal Embedding 
  Dimitrios Pantazis     : SARC Basis sets                               
  Anastasios Papadopoulos: AUTO-CI, single reference methods and gradients 
  Taras Petrenko         : pre 6.0 DFT Hessian and TD-DFT gradient,  ECA, NRVS 
  Petra Pikulova         : Analytic Raman intensities                    
  Peter Pinski           : DLPNO-MP2, DLPNO-MP2 Gradient                 
  Shashank Vittal Rao    : ES-AILFT, MagRelax                            
  Christoph Reimann      : Effective Core Potentials                     
  Marius Retegan         : Local ZFS, SOC                                
  Christoph Riplinger    : Optimizer, TS searches, QM/MM, DLPNO-CCSD(T), (RO)-DLPNO pert. Triples 
  Michael Roemelt        : Original ROCIS implementation, recursive CI coupling coefficients
  Masaaki Saitow         : Open-shell DLPNO-CCSD energy and density      
  Barbara Sandhoefer     : DKH picture change effects                    
  Yorick L. A. Schmerwitz: GMF and freeze-and-release deltaSCF, NEB S-IDPP initial path                    
  Kantharuban Sivalingam : CASSCF convergence/infrastructure, NEVPT2, NEVPT3, NEVPT4(SD), FIC-MRCI and CEPA variants
  Bernardo de Souza      : ESD, SOC TD-DFT                               
  Georgi L. Stoychev     : AutoAux, RI-MP2 NMR, DLPNO-MP2 response, X2C  
  Van Anh Tran           : RI-MP2 g-tensors                              
  Willem Van den Heuvel  : Paramagnetic NMR                              
  Zikuan Wang            : NOTCH, Electric field optimization            
  Frank Wennmohs         : Technical directorship and infrastructure     
  Hang Xu                : AUTO-CI-Response properties                   
                                                                         
[FACCTs GmbH]                                                            
  Markus Bursch, Nicolas Foglia, Miquel Garcia-Rates, Ingolf Harden, Hagen Neugebauer, Anastasios Papadopoulos, 
  Christoph Riplinger, Bernardo de Souza, Georgi L. Stoychev                                                    
                                                                 
  APM, various basis sets, CI-OPT, improved COSX, DLPNO-Multilevel,           
  DOCKER, DRACO, updates on ESD, Fragmentator, GOAT, IRC, LR-CPCM, L-BFGS, MBIS, meta-GGA TD-DFT gradient, ML-optimized integration grids, 
  MM, NACMEs, nearIR, NEB, NEB-TS, NL-DFT gradient (VV10), 2- and 3-layer-ONIOM, interface openCOSMO-RS, QMMM,   
  Crystal-QMMM, RESP, rigid body optimization, SF, symmetry and pop. for TD-DFT, various functionals, SOLVATOR                                   
                                                                         
[Other institutions]                                                     
  V. Asgeirsson          : NEB                                           
  Christoph Bannwarth    : sTDA-DFT, sTD-DFT, PBEh-3c, B97-3c, D3        
  Giovanni Bistoni       : ETS/NOCV, ADLD/ADEX, COVALED                  
  Martin Brehm           : Molecular dynamics                            
  Ronald Cardenas        : ETS/NOCV                                      
  Martina Colucci        : COVALED                                       
  Sebastian Ehlert       : rSCAN, r2SCAN, r2SCAN-3c, D4, dhf basis sets  
  Marvin Friede          : D4 for Fr, Ra, Ac-Lr                          
  Lars Goerigk           : TD-DFT with DH, B97 family of functionals     
  Stefan Grimme          : VdW corrections, initial TS optimization, DFT functionals, gCP, sTDA/sTD-DF 
  Waldemar Hujo          : DFT-NL                                        
  H. Jonsson             : NEB                                           
  Holger Kruse           : gCP                                           
  Marcel Mueller         : wB97X-3c, vDZP basis set                      
  Hagen Neugebauer       : wr2SCAN, Native XTB                           
  Gianluca Regni         : ADLD/ADEX                                     
  Tobias Risthaus        : pre 6.0 range-separated hybrid DFT and stability analysis
  Lukas Wittmann         : regularized MP2, r2SCAN double-hybrids, wr2SCAN        
                                                                         
We gratefully acknowledge several colleagues who have allowed us to      
interface, adapt or use parts of their codes:                            
  Ed Valeev, F. Pavosevic, A. Kumar             : LibInt (2-el integral package), F12 methods 
  Garnet Chan, S. Sharma, J. Yang, R. Olivares  : DMRG                   
  Ulf Ekstrom                                   : XCFun DFT Library      
  Mihaly Kallay                                 : mrcc  (arbitrary order and MRCC methods)
  Frank Weinhold                                : gennbo (NPA and NBO analysis)           
  Simon Mueller                                 : openCOSMO-RS                            
  Christopher J. Cramer and Donald G. Truhlar   : smd solvation model                     
  S Lehtola, MJT Oliveira, MAL Marques          : LibXC Library                           
  Liviu Ungur et al                             : ANISO software                          


 Your calculation uses the libint2 library for the computation of 2-el integrals
 For citations please refer to: http://libint.valeyev.net

 Your ORCA version has been built with support for libXC version: 7.0.0
 For citations please refer to: https://libxc.gitlab.io

 This ORCA versions uses:
   CBLAS   interface :  Fast vector & matrix operations
   LAPACKE interface :  Fast linear algebra routines
   SCALAPACK package :  Parallel linear algebra routines
   Shared memory     :  Shared parallel matrices
   BLAS/LAPACK       :  OpenBLAS 0.3.29  USE64BITINT DYNAMIC_ARCH NO_AFFINITY Cooperlake SINGLE_THREADED
        Core in use  :  Cooperlake
   Copyright (c) 2011-2014, The OpenBLAS Project


  ***********************************
  * Starting time: Mon Jul 13 23:26:27 2026
  * Host name:     c1-34
  * Process ID:    3744080
  * Working dir.:  /cluster/projects/nn14654k/ylvaos/TPhP_bsse/orca/opt1_bp86
  ***********************************

Warning: RI is on but no J-basis has been assigned. Assigning Def2/J (nothing to worry about!)
================================================================================

cite the ECPs for Ru [Def2-ECP] as follows:
Ce-Yb(ecp-28): M. Dolg, H. Stoll, H.Preuss, J. Chem. Phys., 1989, 90, 1730-1734.
Y-Cd(ecp-28), Hf-Hg(ecp-46): D. Andrae,U. Haeussermann, M. Dolg, H. Stoll, H. Preuss, Theor. Chim. Acta, 1990, 77, 123-141.
In-Sb(ecp-28), Tl-Bi(ecp-46): B. Metz, H. Stoll, M. Dolg, J. Chem. Phys., 2000, 113, 2563-2569.
Te-Xe(ecp-28), Po-Rn(ecp-46): K. A. Peterson, D. Figgen, E. Goll, H. Stoll, M. Dolg, J. Chem. Phys., 2003, 119, 11113-11123.
Rb(ecp-28), Cs(ecp-46): T. Leininger, A. Nicklass, W. Kuechle, H. Stoll, M. Dolg, A. Bergner, Chem. Phys. Lett., 1996, 255, 274-280.
Sr(ecp-28), Ba(ecp-46): M. Kaupp, P. V. Schleyer, H. Stoll and H. Preuss, J. Chem. Phys., 1991, 94, 1360-1366.
La(ecp-46): M. Dolg, H. Stoll, A. Savin, H. Preuss, Theor. Chim. Acta, 1989, 75, 173-194.
Lu(ecp-28): X. Cao, M. Dolg, J. Chem. Phys., 2001, 115, 7348-7355.

ECP parameters for Ru [Def2-ECP] have been obtained from:
TURBOMOLE (7.0.2)

----- Orbital basis set information -----
Your calculation utilizes the basis: def2-TZVP
   F. Weigend and R. Ahlrichs, Phys. Chem. Chem. Phys. 7, 3297 (2005).

----- AuxJ basis set information -----
Your calculation utilizes the auxiliary basis: def2/J
   H-Rn: F. Weigend, Phys. Chem. Chem. Phys. 8, 1057 (2006).
   Fr-Lr: K. Eichkorn, F. Weigend, O. Treutler, R. Ahlrichs; Theor. Chem. Acc. 97, 119 (1997).

================================================================================
                                        WARNINGS
                       Please study these warnings very carefully!
================================================================================


================================================================================
                                       INPUT FILE
================================================================================
NAME = 1b_def2tzvp.inp
|  1> ! BP86 def2-TZVP VeryTightSCF defgrid3
|  2> 
|  3> *xyz 0 1
|  4>   Ru          0.03619028696395      0.60243955989531      0.45744310006533
|  5>   P           2.22988902941265      1.08080736263894      0.00663317712692
|  6>   P          -2.21355256077573      1.06572696199755      0.29030991444290
|  7>   P           0.00422697637652     -1.73832860804498      0.13188653652330
|  8>   C           3.10840490295686      0.03130229649509     -1.22131027675437
|  9>   C           5.31658854235128      0.96403748768933      3.47357070904612
| 10>   C           4.31751220542665     -0.00485401525810      3.35875630254901
| 11>   C           3.38457481129996      0.07405112424022      2.32569189302340
| 12>   C           2.48502069387103      2.75531305283417     -0.73154230168009
| 13>   C           1.95055857608548      3.87391841914672     -0.07598115096026
| 14>   C           2.13556833740606      5.15695210134556     -0.58573073523882
| 15>   C           2.85245958799445      5.34438930085250     -1.77108914884186
| 16>   C           3.38904607734315      4.23999814587841     -2.42995422655437
| 17>   C           3.21241991812028      2.95392607171384     -1.90977937563015
| 18>   C          -2.56685821481711      2.81177993722875     -0.21761583913372
| 19>   C           2.38563885967328     -0.38392979051746     -2.34607731474073
| 20>   C          -1.59379464867023      3.55890790757343     -0.89261669861561
| 21>   C          -1.86810753570451      4.85525717691407     -1.33184592317573
| 22>   C          -3.11975741266166      5.42532295201380     -1.09816421966234
| 23>   C          -4.09749919362349      4.68783166459389     -0.42783413861212
| 24>   C          -3.82350623738975      3.39006163642485      0.00516450142965
| 25>   C          -3.32093721873451      0.91655047731761      1.75980537377906
| 26>   C          -2.76447081178405      1.22475611008415      3.00763772606254
| 27>   C          -3.52642531294189      1.14203444389690      4.17250407350723
| 28>   C          -4.86356000643442      0.74366660220756      4.10583328759724
| 29>   C          -5.43215075286579      0.44698982384200      2.86685873670762
| 30>   C           2.95979372254906     -1.23589146501038     -3.28812526607700
| 31>   C          -4.66767956586853      0.53888384206094      1.70178681307668
| 32>   C          -3.14259319420158      0.17028264074249     -1.02725811771264
| 33>   C          -3.21694663097720      0.71625861885612     -2.31628418988650
| 34>   C          -3.78208163174574     -0.00887916505071     -3.36618091534975
| 35>   C          -4.28241411037869     -1.29284623993629     -3.14454669178344
| 36>   C          -4.22320658688338     -1.84002740197045     -1.86281577663765
| 37>   C          -3.66061306629578     -1.11381312674512     -0.81301523165483
| 38>   C           1.42136879494538     -2.62299696554039      0.92044489981565
| 39>   C           1.35596467401366     -2.98728060551867      2.27270860317532
| 40>   C           2.47262723034819     -3.50858680404338      2.92752920200343
| 41>   C           4.27620606840267     -1.67250809862258     -3.11903951280407
| 42>   C           3.67532343912586     -3.67654370111994      2.23906221346150
| 43>   C           3.74569260091813     -3.33107345799744      0.88948278901111
| 44>   C           2.62836161388611     -2.81146926173454      0.23501635316772
| 45>   C          -0.04673830891442     -2.47597922003972     -1.55114174334353
| 46>   C           0.45154596305658     -3.75154664384621     -1.85008678962985
| 47>   C           0.35677110334069     -4.26343501055413     -3.14443216717484
| 48>   C          -0.25183472892195     -3.51216221817497     -4.15270508836146
| 49>   C          -0.76473151997425     -2.24816415907424     -3.85881889561970
| 50>   C          -0.65619858207549     -1.73322021159321     -2.56684231848646
| 51>   C          -1.40831119493772     -2.61008912098298      0.94900994920336
| 52>   C           5.01413078230064     -1.23838903820938     -2.01572612203697
| 53>   C          -1.99519190191732     -3.77392026808572      0.43712994995710
| 54>   C          -3.10597761420888     -4.34141087131052      1.06324287456060
| 55>   C          -3.64402766612623     -3.75809012195330      2.21292295964427
| 56>   C          -3.05452481968054     -2.60973262557994      2.74289247909344
| 57>   C          -1.94556413237091     -2.04571163463117      2.11195765273469
| 58>   C           4.43409695067799     -0.38964045985579     -1.07022033449278
| 59>   C           3.44759002148056      1.10944821166223      1.38461261130144
| 60>   C           4.45385450180034      2.07578462085620      1.50344890698001
| 61>   C           5.38020848424963      2.00551540983533      2.54642251331172
| 62>   H           1.37149654087923      3.73293415801270      0.83972223237532
| 63>   H           1.70962717493055      6.01539469343097     -0.05808384838867
| 64>   H           2.99167263203401      6.35030258578571     -2.17810392675134
| 65>   H           3.95306512016142      4.37402367316753     -3.35769345002290
| 66>   H           3.64768599549450      2.10246477740580     -2.43650168873778
| 67>   H           2.70509087330834     -2.55452363312508     -0.82138419490576
| 68>   H           4.67910263595182     -3.45862110489542      0.33413423203093
| 69>   H           4.55299444127187     -4.08025373428142      2.75202673940158
| 70>   H           2.39937835278055     -3.78621940463694      3.98319733409954
| 71>   H           0.42452921004873     -2.86187884180618      2.82956502072550
| 72>   H          -1.60891404165181     -4.22896390949838     -0.47638654501218
| 73>   H          -3.56183754536320     -5.24239326035725      0.64196752831211
| 74>   H          -4.52372150616283     -4.19748627202403      2.69220913096809
| 75>   H          -3.46929307380594     -2.13035518379662      3.63420961240689
| 76>   H          -1.51399136813202     -1.12733333300693      2.50967505279103
| 77>   H           2.60287415645422     -0.68300142207687      2.24332362452564
| 78>   H           4.25838408529296     -0.82766523226648      4.07699134817291
| 79>   H           6.04523507914458      0.90937474870836      4.28786419758649
| 80>   H           6.15824159914486      2.76976462940037      2.63243230892993
| 81>   H           4.51942607808340      2.88989941085181      0.77758821976267
| 82>   H           5.01438759876979     -0.07449245027816     -0.20020006795354
| 83>   H           1.35411175899292     -0.04924039988355     -2.46270281661813
| 84>   H           2.36808762092936     -1.57281630479432     -4.14407120107729
| 85>   H           4.72850382874376     -2.35010815061649     -3.84921538274736
| 86>   H           6.04815044820478     -1.57065320790886     -1.88320947422293
| 87>   H          -4.60126707311058      2.83122093666205      0.52955345637766
| 88>   H          -5.08163994752431      5.12569568651981     -0.23676397007908
| 89>   H          -3.33435676692592      6.44389629296385     -1.43527338439319
| 90>   H          -1.09022781058613      5.42056266984424     -1.85379116145359
| 91>   H          -0.61181697840964      3.11690706076952     -1.06697780615913
| 92>   H          -1.71504870974255      1.52664795770363      3.06239151816260
| 93>   H          -5.13213946708275      0.30974275198034      0.74036010733993
| 94>   H          -6.48089550676560      0.14232829597172      2.80321025492522
| 95>   H          -3.07323429393645      1.38718197923641      5.13750001338911
| 96>   H          -5.46245308240168      0.67027415267493      5.01836412156527
| 97>   H          -3.63441980953013     -1.55782021887959      0.18136084456956
| 98>   H          -2.82128664994905      1.71626557908143     -2.50820399541937
| 99>   H          -3.83069843211162      0.43550678118916     -4.36479447883516
|100>   H          -4.72020921669881     -1.86403103578901     -3.96834330681989
|101>   H          -4.61280772584365     -2.84392647324995     -1.67137292003245
|102>   H           0.92134627059726     -4.35408861629441     -1.06893582703995
|103>   H          -1.03304307096277     -0.73456899348900     -2.34034397676601
|104>   H          -1.25107270792836     -1.65305100390354     -4.63678697818999
|105>   H          -0.32746073068281     -3.91524775544823     -5.16709055148187
|106>   H           0.75830113503765     -5.25665531083535     -3.36582125474049
|107>   H           0.24256997707423      0.01080726843056      2.07758887403617
|108>   H           0.21396547353258      0.90110975452540      2.13070837039056
|109>   H           0.04172128911973      2.18746312255201      0.68884302963978
|110>   H          -0.10366545516975      0.92565863643754     -1.12623455634315
|111> **                         ****END OF INPUT****
================================================================================

                       ****************************
                       * Single Point Calculation *
                       ****************************

---------------------------------
CARTESIAN COORDINATES (ANGSTROEM)
---------------------------------
  Ru     0.036190    0.602440    0.457443
  P      2.229889    1.080807    0.006633
  P     -2.213553    1.065727    0.290310
  P      0.004227   -1.738329    0.131887
  C      3.108405    0.031302   -1.221310
  C      5.316589    0.964037    3.473571
  C      4.317512   -0.004854    3.358756
  C      3.384575    0.074051    2.325692
  C      2.485021    2.755313   -0.731542
  C      1.950559    3.873918   -0.075981
  C      2.135568    5.156952   -0.585731
  C      2.852460    5.344389   -1.771089
  C      3.389046    4.239998   -2.429954
  C      3.212420    2.953926   -1.909779
  C     -2.566858    2.811780   -0.217616
  C      2.385639   -0.383930   -2.346077
  C     -1.593795    3.558908   -0.892617
  C     -1.868108    4.855257   -1.331846
  C     -3.119757    5.425323   -1.098164
  C     -4.097499    4.687832   -0.427834
  C     -3.823506    3.390062    0.005165
  C     -3.320937    0.916550    1.759805
  C     -2.764471    1.224756    3.007638
  C     -3.526425    1.142034    4.172504
  C     -4.863560    0.743667    4.105833
  C     -5.432151    0.446990    2.866859
  C      2.959794   -1.235891   -3.288125
  C     -4.667680    0.538884    1.701787
  C     -3.142593    0.170283   -1.027258
  C     -3.216947    0.716259   -2.316284
  C     -3.782082   -0.008879   -3.366181
  C     -4.282414   -1.292846   -3.144547
  C     -4.223207   -1.840027   -1.862816
  C     -3.660613   -1.113813   -0.813015
  C      1.421369   -2.622997    0.920445
  C      1.355965   -2.987281    2.272709
  C      2.472627   -3.508587    2.927529
  C      4.276206   -1.672508   -3.119040
  C      3.675323   -3.676544    2.239062
  C      3.745693   -3.331073    0.889483
  C      2.628362   -2.811469    0.235016
  C     -0.046738   -2.475979   -1.551142
  C      0.451546   -3.751547   -1.850087
  C      0.356771   -4.263435   -3.144432
  C     -0.251835   -3.512162   -4.152705
  C     -0.764732   -2.248164   -3.858819
  C     -0.656199   -1.733220   -2.566842
  C     -1.408311   -2.610089    0.949010
  C      5.014131   -1.238389   -2.015726
  C     -1.995192   -3.773920    0.437130
  C     -3.105978   -4.341411    1.063243
  C     -3.644028   -3.758090    2.212923
  C     -3.054525   -2.609733    2.742892
  C     -1.945564   -2.045712    2.111958
  C      4.434097   -0.389640   -1.070220
  C      3.447590    1.109448    1.384613
  C      4.453855    2.075785    1.503449
  C      5.380208    2.005515    2.546423
  H      1.371497    3.732934    0.839722
  H      1.709627    6.015395   -0.058084
  H      2.991673    6.350303   -2.178104
  H      3.953065    4.374024   -3.357693
  H      3.647686    2.102465   -2.436502
  H      2.705091   -2.554524   -0.821384
  H      4.679103   -3.458621    0.334134
  H      4.552994   -4.080254    2.752027
  H      2.399378   -3.786219    3.983197
  H      0.424529   -2.861879    2.829565
  H     -1.608914   -4.228964   -0.476387
  H     -3.561838   -5.242393    0.641968
  H     -4.523722   -4.197486    2.692209
  H     -3.469293   -2.130355    3.634210
  H     -1.513991   -1.127333    2.509675
  H      2.602874   -0.683001    2.243324
  H      4.258384   -0.827665    4.076991
  H      6.045235    0.909375    4.287864
  H      6.158242    2.769765    2.632432
  H      4.519426    2.889899    0.777588
  H      5.014388   -0.074492   -0.200200
  H      1.354112   -0.049240   -2.462703
  H      2.368088   -1.572816   -4.144071
  H      4.728504   -2.350108   -3.849215
  H      6.048150   -1.570653   -1.883209
  H     -4.601267    2.831221    0.529553
  H     -5.081640    5.125696   -0.236764
  H     -3.334357    6.443896   -1.435273
  H     -1.090228    5.420563   -1.853791
  H     -0.611817    3.116907   -1.066978
  H     -1.715049    1.526648    3.062392
  H     -5.132139    0.309743    0.740360
  H     -6.480896    0.142328    2.803210
  H     -3.073234    1.387182    5.137500
  H     -5.462453    0.670274    5.018364
  H     -3.634420   -1.557820    0.181361
  H     -2.821287    1.716266   -2.508204
  H     -3.830698    0.435507   -4.364794
  H     -4.720209   -1.864031   -3.968343
  H     -4.612808   -2.843926   -1.671373
  H      0.921346   -4.354089   -1.068936
  H     -1.033043   -0.734569   -2.340344
  H     -1.251073   -1.653051   -4.636787
  H     -0.327461   -3.915248   -5.167091
  H      0.758301   -5.256655   -3.365821
  H      0.242570    0.010807    2.077589
  H      0.213965    0.901110    2.130708
  H      0.041721    2.187463    0.688843
  H     -0.103665    0.925659   -1.126235

----------------------------
CARTESIAN COORDINATES (A.U.)
----------------------------
  NO LB      ZA    FRAG     MASS         X           Y           Z
   0 Ru   16.0000*   0   101.070    0.068390    1.138446    0.864442
   1 P    15.0000    0    30.974    4.213880    2.042430    0.012535
   2 P    15.0000    0    30.974   -4.183008    2.013932    0.548606
   3 P    15.0000    0    30.974    0.007988   -3.284965    0.249229
   4 C     6.0000    0    12.011    5.874034    0.059153   -2.307942
   5 C     6.0000    0    12.011   10.046896    1.821767    6.564097
   6 C     6.0000    0    12.011    8.158916   -0.009173    6.347130
   7 C     6.0000    0    12.011    6.395919    0.139936    4.394921
   8 C     6.0000    0    12.011    4.696009    5.206787   -1.382415
   9 C     6.0000    0    12.011    3.686022    7.320645   -0.143584
  10 C     6.0000    0    12.011    4.035639    9.745227   -1.106871
  11 C     6.0000    0    12.011    5.390367   10.099432   -3.346873
  12 C     6.0000    0    12.011    6.404369    8.012435   -4.591948
  13 C     6.0000    0    12.011    6.070594    5.582111   -3.608960
  14 C     6.0000    0    12.011   -4.850659    5.313494   -0.411234
  15 C     6.0000    0    12.011    4.508204   -0.725522   -4.433444
  16 C     6.0000    0    12.011   -3.011835    6.725361   -1.686801
  17 C     6.0000    0    12.011   -3.530212    9.175106   -2.516824
  18 C     6.0000    0    12.011   -5.895487   10.252375   -2.075230
  19 C     6.0000    0    12.011   -7.743151    8.858718   -0.808489
  20 C     6.0000    0    12.011   -7.225380    6.406288    0.009759
  21 C     6.0000    0    12.011   -6.275662    1.732029    3.325550
  22 C     6.0000    0    12.011   -5.224093    2.314454    5.683612
  23 C     6.0000    0    12.011   -6.663978    2.158132    7.884890
  24 C     6.0000    0    12.011   -9.190796    1.405326    7.758900
  25 C     6.0000    0    12.011  -10.265277    0.844688    5.417578
  26 C     6.0000    0    12.011    5.593200   -2.335496   -6.213656
  27 C     6.0000    0    12.011   -8.820636    1.018343    3.215911
  28 C     6.0000    0    12.011   -5.938640    0.321788   -1.941237
  29 C     6.0000    0    12.011   -6.079148    1.353533   -4.377143
  30 C     6.0000    0    12.011   -7.147099   -0.016779   -6.361160
  31 C     6.0000    0    12.011   -8.092590   -2.443125   -5.942332
  32 C     6.0000    0    12.011   -7.980704   -3.477148   -3.520212
  33 C     6.0000    0    12.011   -6.917556   -2.104802   -1.536376
  34 C     6.0000    0    12.011    2.685998   -4.956746    1.739389
  35 C     6.0000    0    12.011    2.562402   -5.645142    4.294797
  36 C     6.0000    0    12.011    4.672588   -6.630268    5.532228
  37 C     6.0000    0    12.011    8.080858   -3.160582   -5.894130
  38 C     6.0000    0    12.011    6.945355   -6.947661    4.231214
  39 C     6.0000    0    12.011    7.078333   -6.294817    1.680879
  40 C     6.0000    0    12.011    4.966884   -5.312907    0.444117
  41 C     6.0000    0    12.011   -0.088323   -4.678923   -2.931233
  42 C     6.0000    0    12.011    0.853298   -7.089396   -3.496157
  43 C     6.0000    0    12.011    0.674200   -8.056725   -5.942116
  44 C     6.0000    0    12.011   -0.475899   -6.637025   -7.847475
  45 C     6.0000    0    12.011   -1.445133   -4.248415   -7.292111
  46 C     6.0000    0    12.011   -1.240036   -3.275312   -4.850629
  47 C     6.0000    0    12.011   -2.661322   -4.932354    1.793369
  48 C     6.0000    0    12.011    9.475334   -2.340216   -3.809170
  49 C     6.0000    0    12.011   -3.770366   -7.131676    0.826056
  50 C     6.0000    0    12.011   -5.869447   -8.204078    2.009238
  51 C     6.0000    0    12.011   -6.886214   -7.101761    4.181818
  52 C     6.0000    0    12.011   -5.772215   -4.931680    5.183316
  53 C     6.0000    0    12.011   -3.676583   -3.865835    3.991022
  54 C     6.0000    0    12.011    8.379229   -0.736314   -2.022423
  55 C     6.0000    0    12.011    6.515001    2.096553    2.616539
  56 C     6.0000    0    12.011    8.416565    3.922664    2.841107
  57 C     6.0000    0    12.011   10.167121    3.789875    4.812041
  58 H     1.0000    0     1.008    2.591753    7.054223    1.586845
  59 H     1.0000    0     1.008    3.230727   11.367449   -0.109763
  60 H     1.0000    0     1.008    5.653442   12.000333   -4.116020
  61 H     1.0000    0     1.008    7.470210    8.265707   -6.345121
  62 H     1.0000    0     1.008    6.893128    3.973083   -4.604321
  63 H     1.0000    0     1.008    5.111881   -4.827350   -1.552191
  64 H     1.0000    0     1.008    8.842223   -6.535847    0.631422
  65 H     1.0000    0     1.008    8.603913   -7.710562    5.200577
  66 H     1.0000    0     1.008    4.534168   -7.154918    7.527152
  67 H     1.0000    0     1.008    0.802244   -5.408167    5.347103
  68 H     1.0000    0     1.008   -3.040407   -7.991584   -0.900240
  69 H     1.0000    0     1.008   -6.730897   -9.906688    1.213143
  70 H     1.0000    0     1.008   -8.548595   -7.932100    5.087538
  71 H     1.0000    0     1.008   -6.556014   -4.025788    6.867661
  72 H     1.0000    0     1.008   -2.861029   -2.130351    4.742599
  73 H     1.0000    0     1.008    4.918719   -1.290686    4.239267
  74 H     1.0000    0     1.008    8.047180   -1.564061    7.704397
  75 H     1.0000    0     1.008   11.423839    1.718469    8.102889
  76 H     1.0000    0     1.008   11.637390    5.234097    4.974576
  77 H     1.0000    0     1.008    8.540478    5.461118    1.469429
  78 H     1.0000    0     1.008    9.475819   -0.140770   -0.378323
  79 H     1.0000    0     1.008    2.558900   -0.093051   -4.653834
  80 H     1.0000    0     1.008    4.475037   -2.972192   -7.831160
  81 H     1.0000    0     1.008    8.935577   -4.441061   -7.273963
  82 H     1.0000    0     1.008   11.429348   -2.968104   -3.558750
  83 H     1.0000    0     1.008   -8.695135    5.350232    1.000711
  84 H     1.0000    0     1.008   -9.602908    9.686161   -0.447419
  85 H     1.0000    0     1.008   -6.301021   12.177199   -2.712274
  86 H     1.0000    0     1.008   -2.060232   10.243379   -3.503158
  87 H     1.0000    0     1.008   -1.156167    5.890101   -2.016296
  88 H     1.0000    0     1.008   -3.240972    2.884947    5.787081
  89 H     1.0000    0     1.008   -9.698338    0.585329    1.399078
  90 H     1.0000    0     1.008  -12.247118    0.268962    5.297300
  91 H     1.0000    0     1.008   -5.807571    2.621394    9.708468
  92 H     1.0000    0     1.008  -10.322540    1.266635    9.483334
  93 H     1.0000    0     1.008   -6.868058   -2.943854    0.342722
  94 H     1.0000    0     1.008   -5.331459    3.243272   -4.739819
  95 H     1.0000    0     1.008   -7.238971    0.822989   -8.248266
  96 H     1.0000    0     1.008   -8.919903   -3.522508   -7.499082
  97 H     1.0000    0     1.008   -8.716943   -5.374242   -3.158437
  98 H     1.0000    0     1.008    1.741092   -8.228035   -2.019996
  99 H     1.0000    0     1.008   -1.952168   -1.388134   -4.422609
 100 H     1.0000    0     1.008   -2.364185   -3.123814   -8.762258
 101 H     1.0000    0     1.008   -0.618811   -7.398746   -9.764386
 102 H     1.0000    0     1.008    1.432981   -9.933639   -6.360480
 103 H     1.0000    0     1.008    0.458391    0.020423    3.926074
 104 H     1.0000    0     1.008    0.404336    1.702851    4.026455
 105 H     1.0000    0     1.008    0.078842    4.133706    1.301725
 106 H     1.0000    0     1.008   -0.195899    1.749241   -2.128275
* core charge reduced due to ECP

--------------------------------
INTERNAL COORDINATES (ANGSTROEM)
--------------------------------
 Ru     0   0   0     0.000000000000     0.00000000     0.00000000
 P      1   0   0     2.290061028432     0.00000000     0.00000000
 P      1   2   0     2.303022275107   151.57648864     0.00000000
 P      1   2   3     2.363515251766   101.11141978   137.70987447
 C      2   1   3     1.838775720380   118.02800388   253.43124828
 C      2   1   3     4.643382919500   118.98283681   132.72082420
 C      6   2   1     1.396455018762    58.69937446    41.20535308
 C      7   6   2     1.394209552624   120.02584150   358.44416268
 C      2   1   3     1.847691670766   113.59232968    10.85454467
 C      9   2   1     1.402386588364   118.91422050    52.89071984
 C     10   9   2     1.392928095816   120.86554960   179.03286154
 C     11  10   9     1.397905696973   120.12800679     0.51043030
 C     12  11  10     1.393451855776   119.48183833   359.43229670
 C     13  12  11     1.398484914328   120.28782973     0.00000000
 C      3   1   2     1.852434735325   113.31735611   342.23982620
 C      5   2   1     1.399967617179   117.33279773    38.45152822
 C     15   3   1     1.400242503331   120.16995462    22.12701287
 C     17  15   3     1.395955335898   120.70508090   177.19884549
 C     18  17  15     1.395066142154   120.20347230     0.20830342
 C     19  18  17     1.396142831812   119.53098591   359.69487421
 C     20  19  18     1.395265927470   120.18549172     0.00000000
 C      3   1   2     1.846069150729   120.79447408   223.22125412
 C     22   3   1     1.400618132661   116.94106200    33.24465868
 C     23  22   3     1.394392750734   120.93790485   179.91467814
 C     24  23  22     1.396807474038   120.00943633     0.17882267
 C     25  24  23     1.395123824433   119.54990633   359.19241419
 C     16   5   2     1.393896281646   120.77133485   183.23864400
 C     26  25  24     1.396514695077   120.25177223     0.42475016
 C      3   1   2     1.844159036087   116.50602238    96.85860404
 C     29   3   1     1.401858201453   119.64086391   271.75570012
 C     30  29   3     1.395523381704   120.72274994   172.73333839
 C     31  30  29     1.395716936782   120.24614508     0.00000000
 C     32  31  30     1.394900316784   119.44327919     0.55279620
 C     33  32  31     1.394983808936   120.29178122   359.57425596
 C      4   1   2     1.847363886463   113.89753096    45.49671934
 C     35   4   1     1.401997643655   120.02356066    84.37501501
 C     36  35   4     1.395523354871   120.81830204   187.80860644
 C     27  16   5     1.397199177291   119.82157435   359.35587204
 C     37  36  35     1.395949312904   120.19378620   359.90390018
 C     39  37  36     1.394871367085   119.39583120   359.37356731
 C     40  39  37     1.395257456888   120.37581331     0.54804850
 C      4   1   2     1.838289987057   121.59367061   281.79243387
 C     42   4   1     1.401687414893   123.40619986   153.68885208
 C     43  42   4     1.395113590493   120.50555972   178.67574170
 C     44  43  42     1.396934555100   120.12653252   359.24560320
 C     45  44  43     1.395393602525   119.68840638   359.97137722
 C     46  45  44     1.395044853586   120.05431519     0.69013562
 C      4   1   2     1.850113820522   114.59160850   159.64435531
 C     38  27  16     1.396528796782   119.75650077   359.17462789
 C     48   4   1     1.400340328927   123.37682063   148.89966675
 C     50  48   4     1.395674703409   120.49742611   183.53864414
 C     51  50  48     1.396970025819   120.39444108   359.74624256
 C     52  51  50     1.395387486324   119.57046200   359.28489090
 C     53  52  51     1.394988257779   119.78890006     0.79880258
 C     49  38  27     1.396708484031   120.28376259     1.12542046
 C      8   7   6     1.400588540522   120.63723747     0.86735239
 C     56   8   7     1.400177247800   119.04580232   359.30098252
 C      6   2   1     1.395825037810    61.02646193   222.41463193
 H     10   9   2     1.092566743388   119.39645201   358.27488174
 H     11  10   9     1.093965627888   119.64167195   179.98723277
 H     12  11  10     1.094030547047   120.26548712   179.46575096
 H     13  12  11     1.093974583520   120.15996856   180.07596902
 H     14  13  12     1.091732242330   119.17092109   180.50256996
 H     41  40  39     1.089903919290   119.08224476   180.38174299
 H     40  39  37     1.093588000789   120.36495291   180.16365927
 H     39  37  36     1.093810213774   120.29362339   179.68923849
 H     37  36  35     1.094020321612   119.60406759   179.99516186
 H     36  35   4     1.092422397995   120.10665968     7.59892094
 H     50  48   4     1.091232187714   120.27997758     1.47692912
 H     51  50  48     1.094098011862   119.58464456   179.08634396
 H     52  51  50     1.093912913772   120.17134845   179.09122606
 H     53  52  51     1.093746619862   120.66375766   179.14712811
 H     54  53  52     1.089886639075   119.36922029   177.66468058
 H      8   7   6     1.091315263032   119.73394235   180.29734570
 H      7   6   2     1.093789748621   120.43890311   178.60511406
 H      6   2   1     1.094069319601   178.56995894    81.10406841
 H     58   6   2     1.093988154608   120.09515725   180.98422629
 H     57  56   8     1.092683055672   120.06304824   179.90395099
 H     55  49  38     1.092241167688   119.59883814   178.66757794
 H     16   5   2     1.090718412483   118.89132486     1.75964301
 H     27  16   5     1.093744898046   119.62640312   178.15190138
 H     38  27  16     1.094016405507   120.15247350   179.31795791
 H     49  38  27     1.094146612612   120.04288381   180.51636782
 H     21  20  19     1.091878482874   119.02653253   179.86160349
 H     20  19  18     1.093967885492   120.16157404   179.83818127
 H     19  18  17     1.094160464781   120.31550517   179.55839210
 H     18  17  15     1.094117909025   119.35383951   179.77411207
 H     17  15   3     1.090892611254   119.10451592   356.82008371
 H     23  22   3     1.093354203203   119.12467647   359.45992003
 H     28  26  25     1.092048510600   119.19966549   180.44324657
 H     26  25  24     1.093953991094   120.10629587   180.51922861
 H     24  23  22     1.093936276836   119.81856210   180.01115924
 H     25  24  23     1.093970699348   120.22390091   179.53712159
 H     34  33  32     1.089317293323   118.97764627   179.39648987
 H     30  29   3     1.092425719599   119.92389801   353.30121066
 H     31  30  29     1.094107632580   119.57836355   179.98638224
 H     32  31  30     1.093872702410   120.28101772   180.35829703
 H     33  32  31     1.093733404510   120.38239462   179.85967180
 H     43  42   4     1.092687505137   120.14492718   358.51745008
 H     47  46  45     1.091154215969   120.21212470   178.40082320
 H     46  45  44     1.093582075592   120.43633534   180.51307120
 H     45  44  43     1.094154975445   120.07556867   180.11976989
 H     44  43  42     1.093949751743   119.73266772   179.42704122
 H      1   2   5     1.737093455664    98.10216207   110.45884605
 H    104   1   2     0.892344336712    73.25598679    82.40017838
 H      1   2   5     1.601835264179    79.53898711   210.89071057
 H      1   2   5     1.622364052689    81.30354780   299.21821518

---------------------------
INTERNAL COORDINATES (A.U.)
---------------------------
 Ru     0   0   0     0.000000000000     0.00000000     0.00000000
 P      1   0   0     4.327588173702     0.00000000     0.00000000
 P      1   2   0     4.352081380272   151.57648864     0.00000000
 P      1   2   3     4.466396539184   101.11141978   137.70987447
 C      2   1   3     3.474782533223   118.02800388   253.43124828
 C      2   1   3     8.774722052782   118.98283681   132.72082420
 C      6   2   1     2.638917543800    58.69937446    41.20535308
 C      7   6   2     2.634674227756   120.02584150   358.44416268
 C      2   1   3     3.491631237675   113.59232968    10.85454467
 C      9   2   1     2.650126585893   118.91422050    52.89071984
 C     10   9   2     2.632252625336   120.86554960   179.03286154
 C     11  10   9     2.641658928327   120.12800679     0.51043030
 C     12  11  10     2.633242388221   119.48183833   359.43229670
 C     13  12  11     2.642753490499   120.28782973     0.00000000
 C      3   1   2     3.500594330727   113.31735611   342.23982620
 C      5   2   1     2.645555392826   117.33279773    38.45152822
 C     15   3   1     2.646074852372   120.16995462    22.12701287
 C     17  15   3     2.637973280032   120.70508090   177.19884549
 C     18  17  15     2.636292947377   120.20347230     0.20830342
 C     19  18  17     2.638327595962   119.53098591   359.69487421
 C     20  19  18     2.636670486909   120.18549172     0.00000000
 C      3   1   2     3.488565119159   120.79447408   223.22125412
 C     22   3   1     2.646784688933   116.94106200    33.24465868
 C     23  22   3     2.635020422013   120.93790485   179.91467814
 C     24  23  22     2.639583587745   120.00943633     0.17882267
 C     25  24  23     2.636401951087   119.54990633   359.19241419
 C     16   5   2     2.634082231401   120.77133485   183.23864400
 C     26  25  24     2.639030315692   120.25177223     0.42475016
 C      3   1   2     3.484955525601   116.50602238    96.85860404
 C     29   3   1     2.649128079338   119.64086391   271.75570012
 C     30  29   3     2.637157004903   120.72274994   172.73333839
 C     31  30  29     2.637522770994   120.24614508     0.00000000
 C     32  31  30     2.635979582842   119.44327919     0.55279620
 C     33  32  31     2.636137360144   120.29178122   359.57425596
 C      4   1   2     3.491011815112   113.89753096    45.49671934
 C     35   4   1     2.649391586911   120.02356066    84.37501501
 C     36  35   4     2.637156954197   120.81830204   187.80860644
 C     27  16   5     2.640323799620   119.82157435   359.35587204
 C     37  36  35     2.637961898223   120.19378620   359.90390018
 C     39  37  36     2.635924875839   119.39583120   359.37356731
 C     40  39  37     2.636654479830   120.37581331     0.54804850
 C      4   1   2     3.473864630267   121.59367061   281.79243387
 C     42   4   1     2.648805339512   123.40619986   153.68885208
 C     43  42   4     2.636382611743   120.50555972   178.67574170
 C     44  43  42     2.639823736149   120.12653252   359.24560320
 C     45  44  43     2.636911757797   119.68840638   359.97137722
 C     46  45  44     2.636252717814   120.05431519     0.69013562
 C      4   1   2     3.496208437370   114.59160850   159.64435531
 C     38  27  16     2.639056964053   119.75650077   359.17462789
 C     48   4   1     2.646259715957   123.37682063   148.89966675
 C     50  48   4     2.637442961484   120.49742611   183.53864414
 C     51  50  48     2.639890766095   120.39444108   359.74624256
 C     52  51  50     2.636900199853   119.57046200   359.28489090
 C     53  52  51     2.636145767238   119.78890006     0.79880258
 C     49  38  27     2.639396523743   120.28376259     1.12542046
 C      8   7   6     2.646728767896   120.63723747     0.86735239
 C     56   8   7     2.645951537290   119.04580232   359.30098252
 C      6   2   1     2.637727052332    61.02646193   222.41463193
 H     10   9   2     2.064651928033   119.39645201   358.27488174
 H     11  10   9     2.067295436631   119.64167195   179.98723277
 H     12  11  10     2.067418116063   120.26548712   179.46575096
 H     13  12  11     2.067312360324   120.15996856   180.07596902
 H     14  13  12     2.063074949575   119.17092109   180.50256996
 H     41  40  39     2.059619919745   119.08224476   180.38174299
 H     40  39  37     2.066581824835   120.36495291   180.16365927
 H     39  37  36     2.067001746519   120.29362339   179.68923849
 H     37  36  35     2.067398792792   119.60406759   179.99516186
 H     36  35   4     2.064379154772   120.10665968     7.59892094
 H     50  48   4     2.062129983299   120.27997758     1.47692912
 H     51  50  48     2.067545606088   119.58464456   179.08634396
 H     52  51  50     2.067195821389   120.17134845   179.09122606
 H     53  52  51     2.066881571441   120.66375766   179.14712811
 H     54  53  52     2.059587264872   119.36922029   177.66468058
 H      8   7   6     2.062286972899   119.73394235   180.29734570
 H      7   6   2     2.066963072984   120.43890311   178.60511406
 H      6   2   1     2.067491385572   178.56995894    81.10406841
 H     58   6   2     2.067338005962   120.09515725   180.98422629
 H     57  56   8     2.064871726397   120.06304824   179.90395099
 H     55  49  38     2.064036679125   119.59883814   178.66757794
 H     16   5   2     2.061159088818   118.89132486     1.75964301
 H     27  16   5     2.066878317680   119.62640312   178.15190138
 H     38  27  16     2.067391392426   120.15247350   179.31795791
 H     49  38  27     2.067637448194   120.04288381   180.51636782
 H     21  20  19     2.063351304154   119.02653253   179.86160349
 H     20  19  18     2.067299702886   120.16157404   179.83818127
 H     19  18  17     2.067663625001   120.31550517   179.55839210
 H     18  17  15     2.067583206275   119.35383951   179.77411207
 H     17  15   3     2.061488276789   119.10451592   356.82008371
 H     23  22   3     2.066140011425   119.12467647   359.45992003
 H     28  26  25     2.063672609990   119.19966549   180.44324657
 H     26  25  24     2.067273446277   120.10629587   180.51922861
 H     24  23  22     2.067239971182   119.81856210   180.01115924
 H     25  24  23     2.067305020302   120.22390091   179.53712159
 H     34  33  32     2.058511357325   118.97764627   179.39648987
 H     30  29   3     2.064385431695   119.92389801   353.30121066
 H     31  30  29     2.067563786610   119.57836355   179.98638224
 H     32  31  30     2.067119832926   120.28101772   180.35829703
 H     33  32  31     2.066856598044   120.38239462   179.85967180
 H     43  42   4     2.064880134666   120.14492718   358.51745008
 H     47  46  45     2.061982638056   120.21212470   178.40082320
 H     46  45  44     2.066570627834   120.43633534   180.51307120
 H     45  44  43     2.067653251659   120.07556867   180.11976989
 H     44  43  42     2.067265435065   119.73266772   179.42704122
 H      1   2   5     3.282630900231    98.10216207   110.45884605
 H    104   1   2     1.686286413542    73.25598679    82.40017838
 H      1   2   5     3.027029960957    79.53898711   210.89071057
 H      1   2   5     3.065823749100    81.30354780   299.21821518

---------------------
BASIS SET INFORMATION
---------------------
There are 4 groups of distinct atoms

 Group   1 Type Ru  : 7s7p5d1f contracted to 6s4p3d1f pattern {211111/4111/311/1}
 Group   2 Type P   : 14s9p3d1f contracted to 5s5p2d1f pattern {73211/51111/21/1}
 Group   3 Type C   : 11s6p2d1f contracted to 5s3p2d1f pattern {62111/411/11/1}
 Group   4 Type H   : 5s1p contracted to 3s1p pattern {311/1}

Atom   0Ru   basis set group =>   1
Atom   1P    basis set group =>   2
Atom   2P    basis set group =>   2
Atom   3P    basis set group =>   2
Atom   4C    basis set group =>   3
Atom   5C    basis set group =>   3
Atom   6C    basis set group =>   3
Atom   7C    basis set group =>   3
Atom   8C    basis set group =>   3
Atom   9C    basis set group =>   3
Atom  10C    basis set group =>   3
Atom  11C    basis set group =>   3
Atom  12C    basis set group =>   3
Atom  13C    basis set group =>   3
Atom  14C    basis set group =>   3
Atom  15C    basis set group =>   3
Atom  16C    basis set group =>   3
Atom  17C    basis set group =>   3
Atom  18C    basis set group =>   3
Atom  19C    basis set group =>   3
Atom  20C    basis set group =>   3
Atom  21C    basis set group =>   3
Atom  22C    basis set group =>   3
Atom  23C    basis set group =>   3
Atom  24C    basis set group =>   3
Atom  25C    basis set group =>   3
Atom  26C    basis set group =>   3
Atom  27C    basis set group =>   3
Atom  28C    basis set group =>   3
Atom  29C    basis set group =>   3
Atom  30C    basis set group =>   3
Atom  31C    basis set group =>   3
Atom  32C    basis set group =>   3
Atom  33C    basis set group =>   3
Atom  34C    basis set group =>   3
Atom  35C    basis set group =>   3
Atom  36C    basis set group =>   3
Atom  37C    basis set group =>   3
Atom  38C    basis set group =>   3
Atom  39C    basis set group =>   3
Atom  40C    basis set group =>   3
Atom  41C    basis set group =>   3
Atom  42C    basis set group =>   3
Atom  43C    basis set group =>   3
Atom  44C    basis set group =>   3
Atom  45C    basis set group =>   3
Atom  46C    basis set group =>   3
Atom  47C    basis set group =>   3
Atom  48C    basis set group =>   3
Atom  49C    basis set group =>   3
Atom  50C    basis set group =>   3
Atom  51C    basis set group =>   3
Atom  52C    basis set group =>   3
Atom  53C    basis set group =>   3
Atom  54C    basis set group =>   3
Atom  55C    basis set group =>   3
Atom  56C    basis set group =>   3
Atom  57C    basis set group =>   3
Atom  58H    basis set group =>   4
Atom  59H    basis set group =>   4
Atom  60H    basis set group =>   4
Atom  61H    basis set group =>   4
Atom  62H    basis set group =>   4
Atom  63H    basis set group =>   4
Atom  64H    basis set group =>   4
Atom  65H    basis set group =>   4
Atom  66H    basis set group =>   4
Atom  67H    basis set group =>   4
Atom  68H    basis set group =>   4
Atom  69H    basis set group =>   4
Atom  70H    basis set group =>   4
Atom  71H    basis set group =>   4
Atom  72H    basis set group =>   4
Atom  73H    basis set group =>   4
Atom  74H    basis set group =>   4
Atom  75H    basis set group =>   4
Atom  76H    basis set group =>   4
Atom  77H    basis set group =>   4
Atom  78H    basis set group =>   4
Atom  79H    basis set group =>   4
Atom  80H    basis set group =>   4
Atom  81H    basis set group =>   4
Atom  82H    basis set group =>   4
Atom  83H    basis set group =>   4
Atom  84H    basis set group =>   4
Atom  85H    basis set group =>   4
Atom  86H    basis set group =>   4
Atom  87H    basis set group =>   4
Atom  88H    basis set group =>   4
Atom  89H    basis set group =>   4
Atom  90H    basis set group =>   4
Atom  91H    basis set group =>   4
Atom  92H    basis set group =>   4
Atom  93H    basis set group =>   4
Atom  94H    basis set group =>   4
Atom  95H    basis set group =>   4
Atom  96H    basis set group =>   4
Atom  97H    basis set group =>   4
Atom  98H    basis set group =>   4
Atom  99H    basis set group =>   4
Atom 100H    basis set group =>   4
Atom 101H    basis set group =>   4
Atom 102H    basis set group =>   4
Atom 103H    basis set group =>   4
Atom 104H    basis set group =>   4
Atom 105H    basis set group =>   4
Atom 106H    basis set group =>   4
---------------------------------
AUXILIARY/J BASIS SET INFORMATION
---------------------------------
There are 4 groups of distinct atoms

 Group   1 Type Ru  : 11s5p5d3f3g contracted to 8s5p5d2f3g pattern {41111111/11111/11111/21/111}
 Group   2 Type P   : 14s5p5d2f1g contracted to 8s4p3d1f1g pattern {71111111/2111/311/2/1}
 Group   3 Type C   : 12s5p4d2f1g contracted to 6s4p3d1f1g pattern {711111/2111/211/2/1}
 Group   4 Type H   : 5s2p1d contracted to 3s1p1d pattern {311/2/1}

Atom   0Ru   basis set group =>   1
Atom   1P    basis set group =>   2
Atom   2P    basis set group =>   2
Atom   3P    basis set group =>   2
Atom   4C    basis set group =>   3
Atom   5C    basis set group =>   3
Atom   6C    basis set group =>   3
Atom   7C    basis set group =>   3
Atom   8C    basis set group =>   3
Atom   9C    basis set group =>   3
Atom  10C    basis set group =>   3
Atom  11C    basis set group =>   3
Atom  12C    basis set group =>   3
Atom  13C    basis set group =>   3
Atom  14C    basis set group =>   3
Atom  15C    basis set group =>   3
Atom  16C    basis set group =>   3
Atom  17C    basis set group =>   3
Atom  18C    basis set group =>   3
Atom  19C    basis set group =>   3
Atom  20C    basis set group =>   3
Atom  21C    basis set group =>   3
Atom  22C    basis set group =>   3
Atom  23C    basis set group =>   3
Atom  24C    basis set group =>   3
Atom  25C    basis set group =>   3
Atom  26C    basis set group =>   3
Atom  27C    basis set group =>   3
Atom  28C    basis set group =>   3
Atom  29C    basis set group =>   3
Atom  30C    basis set group =>   3
Atom  31C    basis set group =>   3
Atom  32C    basis set group =>   3
Atom  33C    basis set group =>   3
Atom  34C    basis set group =>   3
Atom  35C    basis set group =>   3
Atom  36C    basis set group =>   3
Atom  37C    basis set group =>   3
Atom  38C    basis set group =>   3
Atom  39C    basis set group =>   3
Atom  40C    basis set group =>   3
Atom  41C    basis set group =>   3
Atom  42C    basis set group =>   3
Atom  43C    basis set group =>   3
Atom  44C    basis set group =>   3
Atom  45C    basis set group =>   3
Atom  46C    basis set group =>   3
Atom  47C    basis set group =>   3
Atom  48C    basis set group =>   3
Atom  49C    basis set group =>   3
Atom  50C    basis set group =>   3
Atom  51C    basis set group =>   3
Atom  52C    basis set group =>   3
Atom  53C    basis set group =>   3
Atom  54C    basis set group =>   3
Atom  55C    basis set group =>   3
Atom  56C    basis set group =>   3
Atom  57C    basis set group =>   3
Atom  58H    basis set group =>   4
Atom  59H    basis set group =>   4
Atom  60H    basis set group =>   4
Atom  61H    basis set group =>   4
Atom  62H    basis set group =>   4
Atom  63H    basis set group =>   4
Atom  64H    basis set group =>   4
Atom  65H    basis set group =>   4
Atom  66H    basis set group =>   4
Atom  67H    basis set group =>   4
Atom  68H    basis set group =>   4
Atom  69H    basis set group =>   4
Atom  70H    basis set group =>   4
Atom  71H    basis set group =>   4
Atom  72H    basis set group =>   4
Atom  73H    basis set group =>   4
Atom  74H    basis set group =>   4
Atom  75H    basis set group =>   4
Atom  76H    basis set group =>   4
Atom  77H    basis set group =>   4
Atom  78H    basis set group =>   4
Atom  79H    basis set group =>   4
Atom  80H    basis set group =>   4
Atom  81H    basis set group =>   4
Atom  82H    basis set group =>   4
Atom  83H    basis set group =>   4
Atom  84H    basis set group =>   4
Atom  85H    basis set group =>   4
Atom  86H    basis set group =>   4
Atom  87H    basis set group =>   4
Atom  88H    basis set group =>   4
Atom  89H    basis set group =>   4
Atom  90H    basis set group =>   4
Atom  91H    basis set group =>   4
Atom  92H    basis set group =>   4
Atom  93H    basis set group =>   4
Atom  94H    basis set group =>   4
Atom  95H    basis set group =>   4
Atom  96H    basis set group =>   4
Atom  97H    basis set group =>   4
Atom  98H    basis set group =>   4
Atom  99H    basis set group =>   4
Atom 100H    basis set group =>   4
Atom 101H    basis set group =>   4
Atom 102H    basis set group =>   4
Atom 103H    basis set group =>   4
Atom 104H    basis set group =>   4
Atom 105H    basis set group =>   4
Atom 106H    basis set group =>   4
-------------------------
ECP PARAMETER INFORMATION
-------------------------

 Group 1, Type Ru ECP Def2-ECP (replacing 28 core electrons, lmax=3)

Atom   0Ru   ECP group =>   1

------------------------------------------------------------------------------
                             ORCA STARTUP CALCULATIONS
                           -- RI-GTO INTEGRALS CHOSEN --
------------------------------------------------------------------------------
------------------------------------------------------------------------------
                   ___                                                        
                  /   \      - P O W E R E D   B Y -                         
                 /     \                                                     
                 |  |  |   _    _      __       _____    __    __             
                 |  |  |  | |  | |    /  \     |  _  \  |  |  /  |          
                  \  \/   | |  | |   /    \    | | | |  |  | /  /          
                 / \  \   | |__| |  /  /\  \   | |_| |  |  |/  /          
                |  |  |   |  __  | /  /__\  \  |    /   |      \           
                |  |  |   | |  | | |   __   |  |    \   |  |\   \          
                \     /   | |  | | |  |  |  |  | |\  \  |  | \   \       
                 \___/    |_|  |_| |__|  |__|  |_| \__\ |__|  \__/        
                                                                              
                      - O R C A' S   B I G   F R I E N D -                    
                                      &                                       
                       - I N T E G R A L  F E E D E R -                       
                                                                              
 v1 FN, 2020, v2 2021, v3 2022-2024                                           
------------------------------------------------------------------------------


----------------------
SHARK INTEGRAL PACKAGE
----------------------

Number of atoms                             ...    107
Number of basis functions                   ...   2119
Number of shells                            ...    843
Maximum angular momentum                    ...      3
Integral batch strategy                     ... SHARK/LIBINT Hybrid
RI-J (if used) integral strategy            ... SPLIT-RIJ (Revised 2003 algorithm where possible)
Printlevel                                  ...      1
Contraction scheme used                     ... SEGMENTED contraction
Prescreening option                         ... SCHWARTZ
   Thresh                                   ... 1.000e-12
   Tcut                                     ... 1.000e-14
   Tpresel                                  ... 1.000e-14 
Coulomb Range Separation                    ... NOT USED
Exchange Range Separation                   ... NOT USED
Multipole approximations                    ... NOT USED
Finite Nucleus Model                        ... NOT USED
CABS basis                                  ... NOT available
Auxiliary Coulomb fitting basis             ... AVAILABLE
   # of basis functions in Aux-J            ...   3427
   # of shells in Aux-J                     ...   1129
   Maximum angular momentum in Aux-J        ...      4
Auxiliary J/K fitting basis                 ... NOT available
Auxiliary Correlation fitting basis         ... NOT available
Auxiliary 'external' fitting basis          ... NOT available

Checking pre-screening integrals            ... done (  0.0 sec) Dimension = 843
   => SHARK Basis and OBASIS are compatible. Storing Pre-screening
Shell pair information
Shell pair cut-off parameter TPreSel        ...   1.0e-14
Total number of shell pairs                 ...    355746
Shell pairs after pre-screening             ...    213083
Total number of primitive shell pairs       ...   1090003
Primitive shell pairs kept                  ...    399342
          la=0 lb=0:  56228 shell pairs
          la=1 lb=0:  64263 shell pairs
          la=1 lb=1:  18358 shell pairs
          la=2 lb=0:  28940 shell pairs
          la=2 lb=1:  16946 shell pairs
          la=2 lb=2:   3828 shell pairs
          la=3 lb=0:  12862 shell pairs
          la=3 lb=1:   7657 shell pairs
          la=3 lb=2:   3280 shell pairs
          la=3 lb=3:    721 shell pairs

Checking whether 4 symmetric matrices of dimension 2119 fit in memory
:Max Core in MB      =   4096.00
 MB in use           =    251.75
 MB left             =   3844.25
 MB needed           =     68.55
 Data fit in memory  = YES
Calculating RI/J V-Matrix + Cholesky decomp.... done (  0.4 sec)
Calculating Nuclear repulsion               ... done (  0.0 sec) ENN=   9817.229163980353 Eh

Diagonalization of the overlap matrix:
Smallest eigenvalue                        ... 4.117e-06
Time for diagonalization                   ...    0.731 sec
Threshold for overlap eigenvalues          ... 1.000e-07
Number of eigenvalues below threshold      ... 0
Time for construction of square roots      ...    0.433 sec
Total time needed                          ...    1.170 sec

-------------------
DFT GRID GENERATION
-------------------

General Integration Accuracy     IntAcc      ... 4.959
Radial Grid Type                 RadialGrid  ... OptM3 with GC (2021)
Angular Grid (max. ang.)         AngularGrid ... 6 (Lebedev-590)
Angular grid pruning method      GridPruning ... 4 (adaptive)
Weight generation scheme         WeightScheme... mBecke (2022)
Basis function cutoff            BFCut       ... 1.0000e-12
Integration weight cutoff        WCut        ... 1.0000e-14
Partially contracted basis set               ... off
Rotationally invariant grid construction     ... off
Angular grids for H and He will be reduced by one unit

Total number of grid points                  ...  1220251
Total number of batches                      ...    19117
Average number of points per batch           ...       63
Average number of grid points per atom       ...    11404
Grids setup in  28.3 sec
Initializing property integral containers    ... done (  0.0 sec)

SHARK setup successfully completed in  36.3 seconds

Maximum memory used throughout the entire STARTUP-calculation: 866.4 MB
-------------------------------------------------------------------------------
                                 ORCA GUESS
                   Start orbitals & Density for SCF / CASSCF
-------------------------------------------------------------------------------

------------
SCF SETTINGS
------------
Hamiltonian:
 Density Functional     Method          .... DFT(GTOs)
 Exchange Functional    Exchange        .... B88
   X-Alpha parameter    XAlpha          ....  0.666667
   Becke's b parameter  XBeta           ....  0.004200
 Correlation Functional Correlation     .... P86
 LDA part of GGA corr.  LDAOpt          .... PW91-LDA
 Gradients option       PostSCFGGA      .... off
   NL short-range parameter             ....  4.400000
 RI-approximation to the Coulomb term is turned on
   Number of AuxJ basis functions       .... 3427


General Settings:
 Integral files         IntName         .... 1b_def2tzvp
 Hartree-Fock type      HFTyp           .... RHF
 Total Charge           Charge          ....    0
 Multiplicity           Mult            ....    1
 Number of Electrons    NEL             ....  434
 Basis Dimension        Dim             .... 2119
 Nuclear Repulsion      ENuc            ....   9817.2291639804 Eh

Convergence Acceleration:
 AO-DIIS                CNVDIIS         .... on
   Start iteration      DIISMaxIt       ....    12
   Startup error        DIISStart       ....  0.200000
   # of expansion vecs  DIISMaxEq       ....     5
   Bias factor          DIISBfac        ....   1.050
   Max. coefficient     DIISMaxC        ....  10.000
 MO-DIIS                CNVKDIIS        .... off
 Trust-Rad. Augm. Hess. CNVTRAH         .... auto
   Auto Start mean grad. ratio tolernc. ....  1.125000
   Auto Start start iteration           ....    50
   Auto Start num. interpolation iter.  ....    10
   Max. Number of Micro iterations      ....    24
   Max. Number of Macro iterations      .... Maxiter - #DIIS iter
   Number of Davidson start vectors     ....     2
   Converg. threshold    (grad. norm)   ....   2.000e-06
   Grad. Scal. Fac. for Micro threshold ....   0.100
   Minimum threshold for Micro iter.    ....   1.000e-02
   NR start threshold (gradient norm)   ....   1.000e-04
   Initial trust radius                 ....   0.400
   Minimum AH scaling param. (alpha)    ....   1.000
   Maximum AH scaling param. (alpha)    .... 1000.000
   Quad. conv. algorithm                .... NR
   White noise on init. David. guess    .... on
   Maximum white noise                  ....   0.010
   Pseudo random numbers                .... off
   Inactive MOs                         .... canonical
   Orbital update algorithm             .... Taylor
   Preconditioner                       .... Diag
   Full preconditioner red. dimension   ....   250
 SOSCF                 CNVSOSCF           .... on
   Start iteration     SOSCFMaxIt         ....   150
   Startup grad/error  SOSCFStart         ....  0.003300
   Hessian update      SOSCFHessUp        .... L-BFGS
   Autom. constraints  SOSCFAutoConstrain .... off
 Level Shifting         CNVShift        .... on
   Level shift para.    LevelShift      ....    0.2500
   Turn off err/grad.   ShiftErr        ....    0.0010
 Zerner damping         CNVZerner       .... off
 Static damping         CNVDamp         .... on
   Fraction old density DampFac         ....    0.7000
   Max. Damping (<1)    DampMax         ....    0.9800
   Min. Damping (>=0)   DampMin         ....    0.0000
   Turn off err/grad.   DampErr         ....    0.1000

SCF Procedure:
 Maximum # iterations   MaxIter         ....   125
 SCF integral mode      SCFMode         .... Direct
   Integral package                     .... SHARK and LIBINT hybrid scheme
 Reset frequency        DirectResetFreq ....    20
 Integral Threshold     Thresh          ....  1.000e-12 Eh
 Primitive CutOff       TCut            ....  1.000e-14 Eh

Convergence Tolerance:
 Convergence Check Mode ConvCheckMode   .... Total+1el-Energy
 Convergence forced     ConvForced      .... 0
 Energy Change          TolE            ....  1.000e-09 Eh
 1-El. energy change                    ....  1.000e-06 Eh
 Orbital Gradient       TolG            ....  2.000e-06
 Orbital Rotation angle TolX            ....  2.000e-06
 DIIS Error             TolErr          ....  1.000e-08

------------------------------
INITIAL GUESS: MODEL POTENTIAL
------------------------------
Loading Hartree-Fock densities                     ... done
Atomic calculation to generate a density for atom 0 (Ru with ECP)
  Multiplicity assumed   :    5
  Atomic configuration   : 1s2 2s2 2p6 3s2 3p6 4s2 3d10 4p6 5s2 4d6 
  Number of open shells  : 1
  Command: /cluster/projects/nn14654k/ylvaos/orca_6_1_1_linux_x86-64_shared_openmpi418/orca 1b_def2tzvp_atom44.inp "" > 1b_def2tzvp_atom44.out
Returned from the atomic calculation with res=0
Calculating cut-offs                               ... done
Initializing the effective Hamiltonian             ... done
Setting up the integral package (SHARK)            ... done
Starting the Coulomb interaction                   ... done (  25.2 sec)
Making the grid                                    ... done (   3.2 sec)
Mapping shells                                     ... done
Starting the XC term evaluation                    ... done (   7.5 sec)
  promolecular density results
     # of electrons  =    461.983324105
     EX              =   -489.510645022
     EC              =    -18.207216784
     EX+EC           =   -507.717861806
Transforming the Hamiltonian                       ... done (   0.5 sec)
Diagonalizing the Hamiltonian                      ... done (   0.8 sec)
Back transforming the eigenvectors                 ... done (   0.3 sec)
Now organizing SCF variables                       ... done
                      ------------------
                      INITIAL GUESS DONE (  38.8 sec)
                      ------------------
             **** ENERGY FILE WAS UPDATED (1b_def2tzvp.en.tmp) ****
Finished Guess after  39.5 sec
Maximum memory used throughout the entire GUESS-calculation: 637.4 MB

-------------------------------------------------------------------------------------------
                                      ORCA LEAN-SCF
                              memory conserving SCF solver
-------------------------------------------------------------------------------------------

----------------------------------------D-I-I-S--------------------------------------------
Iteration    Energy (Eh)           Delta-E    RMSDP     MaxDP     DIISErr   Damp  Time(sec)
-------------------------------------------------------------------------------------------
               ***  Starting incremental Fock matrix formation  ***
    1    -3206.1404153168714402     0.00e+00  7.56e-04  5.80e-02  4.54e-01  0.700 122.1
    2    -3206.6786097560579947    -5.38e-01  5.86e-04  4.18e-02  3.12e-01  0.700 114.0
    3    -3206.8774649535771459    -1.99e-01  3.40e-04  3.26e-02  2.15e-01  0.700 109.0
                               ***Turning on AO-DIIS***
    4    -3206.9885212189728918    -1.11e-01  2.13e-04  3.09e-02  1.51e-01  0.700 102.9
    5    -3207.0705075193072844    -8.20e-02  1.47e-04  2.45e-02  1.05e-01  0.700 101.2
    6    -3207.1281662070123275    -5.77e-02  1.05e-04  1.76e-02  7.42e-02  0.700  98.7
    7    -3207.1683400972451636    -4.02e-02  2.51e-04  4.16e-02  5.16e-02  0.000  87.3
                              *** Initializing SOSCF ***
---------------------------------------S-O-S-C-F--------------------------------------
Iteration    Energy (Eh)           Delta-E    RMSDP     MaxDP     MaxGrad    Time(sec)
--------------------------------------------------------------------------------------
    8    -3207.2614438884284027    -9.31e-02  1.74e-05  1.57e-03  1.50e-03    96.5
               *** Restarting incremental Fock matrix formation ***
    9    -3207.2614692335864675    -2.53e-05  2.30e-05  3.70e-03  2.58e-04   126.8
   10    -3207.2613508056547289     1.18e-04  1.77e-05  3.33e-03  1.31e-03    81.8
   11    -3207.2614729672586691    -1.22e-04  1.12e-05  1.22e-03  1.11e-04    76.0
   12    -3207.2614534063959582     1.96e-05  8.19e-06  9.34e-04  1.72e-04    81.2
   13    -3207.2614764829595515    -2.31e-05  4.14e-06  5.59e-04  4.94e-05    79.3
   14    -3207.2614726242918550     3.86e-06  2.99e-06  4.20e-04  1.26e-04    76.5
   15    -3207.2614772090291808    -4.58e-06  9.61e-07  9.13e-05  1.27e-05    75.6
   16    -3207.2614769529736805     2.56e-07  7.44e-07  7.29e-05  3.45e-05    69.8
   17    -3207.2614772437482316    -2.91e-07  4.60e-07  6.10e-05  3.47e-06    66.5
   18    -3207.2614772201468440     2.36e-08  2.90e-07  3.38e-05  7.33e-06    65.7
   19    -3207.2614772503620770    -3.02e-08  1.87e-07  2.88e-05  1.74e-06    65.3
   20    -3207.2614772474789788     2.88e-09  9.73e-08  1.53e-05  5.11e-06    61.7
   21    -3207.2614772526339948    -5.16e-09  2.17e-07  5.04e-05  6.10e-07    59.8
   22    -3207.2614772569704655    -4.34e-09  8.93e-08  1.26e-05  1.87e-06    60.2
   23    -3207.2614772505057772     6.46e-09  1.88e-07  3.19e-05  2.05e-07    57.3
                  *** Gradient check signals convergence ***

               *****************************************************
               *                     SUCCESS                       *
               *           SCF CONVERGED AFTER  23 CYCLES          *
               *****************************************************

             **** ENERGY FILE WAS UPDATED (1b_def2tzvp.en.tmp) ****

----------------
TOTAL SCF ENERGY
----------------

Total Energy       :      -3207.26147724718248 Eh          -87274.02172 eV

Components:
Nuclear Repulsion  :       9817.22916398035341 Eh          267140.38671 eV
Electronic Energy  :     -13024.49064122753589 Eh         -354414.40843 eV
One Electron Energy:     -23980.53809173562331 Eh         -652543.61615 eV
Two Electron Energy:      10956.04745050808742 Eh          298129.20772 eV

Virial components:
Potential Energy   :      -6341.18587697288604 Eh         -172552.44011 eV
Kinetic Energy     :       3133.92439972570355 Eh           85278.41839 eV
Virial Ratio       :          2.02340103594327

DFT components:
N(Alpha)           :      217.000004301129 electrons
N(Beta)            :      217.000004301129 electrons
N(Total)           :      434.000008602259 electrons
E(X)               :     -375.684585615379 Eh       
E(C)               :      -16.251256187574 Eh       
E(XC)              :     -391.935841802953 Eh       

---------------
SCF CONVERGENCE
---------------

  Last Energy change         ...   -6.4647e-09  Tolerance :   1.0000e-09
  Last MAX-Density change    ...    3.1910e-05  Tolerance :   1.0000e-08
  Last RMS-Density change    ...    1.8756e-07  Tolerance :   1.0000e-09
  Last DIIS Error            ...    1.5021e-03  Tolerance :   1.0000e-08
  Last Orbital Gradient      ...    2.0454e-07  Tolerance :   2.0000e-06
  Last Orbital Rotation      ...    9.8967e-07  Tolerance :   2.0000e-06


----------------
ORBITAL ENERGIES
----------------

  NO   OCC          E(Eh)            E(eV) 
   0   2.0000     -76.363375     -2077.9531 
   1   2.0000     -76.361481     -2077.9015 
   2   2.0000     -76.360663     -2077.8793 
   3   2.0000      -9.908669      -269.6286 
   4   2.0000      -9.906926      -269.5812 
   5   2.0000      -9.906516      -269.5700 
   6   2.0000      -9.906289      -269.5638 
   7   2.0000      -9.906167      -269.5605 
   8   2.0000      -9.905115      -269.5319 
   9   2.0000      -9.904996      -269.5286 
  10   2.0000      -9.904868      -269.5252 
  11   2.0000      -9.904378      -269.5118 
  12   2.0000      -9.904322      -269.5103 
  13   2.0000      -9.904320      -269.5102 
  14   2.0000      -9.904310      -269.5100 
  15   2.0000      -9.904178      -269.5064 
  16   2.0000      -9.903406      -269.4854 
  17   2.0000      -9.903377      -269.4846 
  18   2.0000      -9.903344      -269.4837 
  19   2.0000      -9.903255      -269.4813 
  20   2.0000      -9.903001      -269.4744 
  21   2.0000      -9.902963      -269.4733 
  22   2.0000      -9.902116      -269.4503 
  23   2.0000      -9.901727      -269.4397 
  24   2.0000      -9.901525      -269.4342 
  25   2.0000      -9.901498      -269.4334 
  26   2.0000      -9.900884      -269.4167 
  27   2.0000      -9.900838      -269.4155 
  28   2.0000      -9.900738      -269.4128 
  29   2.0000      -9.900717      -269.4122 
  30   2.0000      -9.900655      -269.4105 
  31   2.0000      -9.900105      -269.3955 
  32   2.0000      -9.900065      -269.3945 
  33   2.0000      -9.900013      -269.3930 
  34   2.0000      -9.899855      -269.3888 
  35   2.0000      -9.899467      -269.3782 
  36   2.0000      -9.899416      -269.3768 
  37   2.0000      -9.899415      -269.3768 
  38   2.0000      -9.899250      -269.3723 
  39   2.0000      -9.899162      -269.3699 
  40   2.0000      -9.899048      -269.3668 
  41   2.0000      -9.898930      -269.3636 
  42   2.0000      -9.898795      -269.3599 
  43   2.0000      -9.898411      -269.3495 
  44   2.0000      -9.898062      -269.3400 
  45   2.0000      -9.898050      -269.3396 
  46   2.0000      -9.897993      -269.3381 
  47   2.0000      -9.897471      -269.3239 
  48   2.0000      -9.897408      -269.3222 
  49   2.0000      -9.897323      -269.3198 
  50   2.0000      -9.897010      -269.3113 
  51   2.0000      -9.896901      -269.3084 
  52   2.0000      -9.896855      -269.3071 
  53   2.0000      -9.896634      -269.3011 
  54   2.0000      -9.896152      -269.2880 
  55   2.0000      -9.894866      -269.2530 
  56   2.0000      -9.890954      -269.1465 
  57   2.0000      -6.319916      -171.9737 
  58   2.0000      -6.318420      -171.9330 
  59   2.0000      -6.317927      -171.9195 
  60   2.0000      -4.536302      -123.4391 
  61   2.0000      -4.535875      -123.4274 
  62   2.0000      -4.534632      -123.3936 
  63   2.0000      -4.534442      -123.3884 
  64   2.0000      -4.534101      -123.3791 
  65   2.0000      -4.533941      -123.3748 
  66   2.0000      -4.533209      -123.3549 
  67   2.0000      -4.531732      -123.3147 
  68   2.0000      -4.531193      -123.3000 
  69   2.0000      -2.837445       -77.2108 
  70   2.0000      -1.722791       -46.8795 
  71   2.0000      -1.719843       -46.7993 
  72   2.0000      -1.718396       -46.7599 
  73   2.0000      -0.789149       -21.4738 
  74   2.0000      -0.786896       -21.4125 
  75   2.0000      -0.785435       -21.3728 
  76   2.0000      -0.780200       -21.2303 
  77   2.0000      -0.779151       -21.2018 
  78   2.0000      -0.778120       -21.1737 
  79   2.0000      -0.777823       -21.1656 
  80   2.0000      -0.776382       -21.1264 
  81   2.0000      -0.774119       -21.0649 
[...]
 10 C      6.1278     6.0000    -0.1278     3.8853     3.8853    -0.0000
 11 C      6.0899     6.0000    -0.0899     3.8531     3.8531    -0.0000
 12 C      6.1522     6.0000    -0.1522     3.9232     3.9232    -0.0000
 13 C      6.0994     6.0000    -0.0994     3.8438     3.8438    -0.0000
 14 C      6.1196     6.0000    -0.1196     3.9564     3.9564     0.0000
 15 C      6.1033     6.0000    -0.1033     3.8417     3.8417    -0.0000
 16 C      6.1668     6.0000    -0.1668     3.8636     3.8636    -0.0000
 17 C      6.1669     6.0000    -0.1669     3.9871     3.9871     0.0000
 18 C      6.0833     6.0000    -0.0833     3.8409     3.8409     0.0000
 19 C      6.1480     6.0000    -0.1480     3.9160     3.9160    -0.0000
 20 C      6.0910     6.0000    -0.0910     3.8434     3.8434    -0.0000
 21 C      5.9722     6.0000     0.0278     3.7660     3.7660    -0.0000
 22 C      6.1889     6.0000    -0.1889     3.9202     3.9202    -0.0000
 23 C      6.1285     6.0000    -0.1285     3.9181     3.9181     0.0000
 24 C      6.1200     6.0000    -0.1200     3.8604     3.8604     0.0000
 25 C      6.1146     6.0000    -0.1146     3.9016     3.9016     0.0000
 26 C      6.1498     6.0000    -0.1498     3.9206     3.9206    -0.0000
 27 C      6.2032     6.0000    -0.2032     3.8624     3.8624     0.0000
 28 C      5.9778     6.0000     0.0222     3.6466     3.6466     0.0000
 29 C      6.1410     6.0000    -0.1410     3.7771     3.7771     0.0000
 30 C      6.1573     6.0000    -0.1573     3.8805     3.8805     0.0000
 31 C      6.0956     6.0000    -0.0956     3.8318     3.8318     0.0000
 32 C      6.1274     6.0000    -0.1274     3.9357     3.9357    -0.0000
 33 C      6.2194     6.0000    -0.2194     3.8476     3.8476     0.0000
 34 C      5.9990     6.0000     0.0010     3.6815     3.6815     0.0000
 35 C      6.1683     6.0000    -0.1683     3.8110     3.8110     0.0000
 36 C      6.1479     6.0000    -0.1479     3.8889     3.8889     0.0000
 37 C      6.0701     6.0000    -0.0701     3.7972     3.7972    -0.0000
 38 C      6.1187     6.0000    -0.1187     3.8679     3.8679    -0.0000
 39 C      6.1107     6.0000    -0.1107     3.9147     3.9147    -0.0000
 40 C      6.2271     6.0000    -0.2271     3.9002     3.9002     0.0000
 41 C      5.9661     6.0000     0.0339     3.7369     3.7369     0.0000
 42 C      6.2404     6.0000    -0.2404     3.8632     3.8632    -0.0000
 43 C      6.0840     6.0000    -0.0840     3.8454     3.8454     0.0000
 44 C      6.1293     6.0000    -0.1293     3.8580     3.8580     0.0000
 45 C      6.1395     6.0000    -0.1395     3.9209     3.9209    -0.0000
 46 C      6.1914     6.0000    -0.1914     3.8740     3.8740     0.0000
 47 C      6.0634     6.0000    -0.0634     3.7872     3.7872     0.0000
 48 C      6.1864     6.0000    -0.1864     3.9157     3.9157    -0.0000
 49 C      6.1091     6.0000    -0.1091     3.8151     3.8151     0.0000
 50 C      6.1642     6.0000    -0.1642     3.8982     3.8982     0.0000
 51 C      6.0878     6.0000    -0.0878     3.8382     3.8382     0.0000
 52 C      6.1383     6.0000    -0.1383     3.9651     3.9651    -0.0000
 53 C      6.2137     6.0000    -0.2137     3.8274     3.8274    -0.0000
 54 C      6.0435     6.0000    -0.0435     3.7169     3.7169     0.0000
 55 C      6.0907     6.0000    -0.0907     3.8517     3.8517    -0.0000
 56 C      6.1049     6.0000    -0.1049     3.7665     3.7665     0.0000
 57 C      6.1427     6.0000    -0.1427     3.9175     3.9175     0.0000
 58 H      0.8368     1.0000     0.1632     0.9637     0.9637    -0.0000
 59 H      0.8915     1.0000     0.1085     0.9699     0.9699    -0.0000
 60 H      0.8943     1.0000     0.1057     0.9668     0.9668    -0.0000
 61 H      0.8961     1.0000     0.1039     0.9718     0.9718    -0.0000
 62 H      0.8485     1.0000     0.1515     0.9598     0.9598    -0.0000
 63 H      0.7669     1.0000     0.2331     0.8551     0.8551     0.0000
 64 H      0.8955     1.0000     0.1045     0.9776     0.9776     0.0000
 65 H      0.8986     1.0000     0.1014     0.9700     0.9700    -0.0000
 66 H      0.8965     1.0000     0.1035     0.9715     0.9715    -0.0000
 67 H      0.8493     1.0000     0.1507     0.9528     0.9528     0.0000
 68 H      0.8413     1.0000     0.1587     0.9480     0.9480     0.0000
 69 H      0.8962     1.0000     0.1038     0.9720     0.9720     0.0000
 70 H      0.8954     1.0000     0.1046     0.9687     0.9687     0.0000
 71 H      0.8713     1.0000     0.1287     0.9613     0.9613     0.0000
 72 H      0.8455     1.0000     0.1545     0.9815     0.9815    -0.0000
 73 H      0.8059     1.0000     0.1941     0.8581     0.8581     0.0000
 74 H      0.8948     1.0000     0.1052     0.9805     0.9805    -0.0000
 75 H      0.8952     1.0000     0.1048     0.9675     0.9675    -0.0000
 76 H      0.8951     1.0000     0.1049     0.9712     0.9712     0.0000
 77 H      0.8489     1.0000     0.1511     0.9571     0.9571     0.0000
 78 H      0.8465     1.0000     0.1535     0.9549     0.9549     0.0000
 79 H      0.8413     1.0000     0.1587     0.9779     0.9779    -0.0000
 80 H      0.8763     1.0000     0.1237     0.9669     0.9669    -0.0000
 81 H      0.8957     1.0000     0.1043     0.9686     0.9686    -0.0000
 82 H      0.8954     1.0000     0.1046     0.9723     0.9723    -0.0000
 83 H      0.8599     1.0000     0.1401     0.9565     0.9565     0.0000
 84 H      0.8980     1.0000     0.1020     0.9710     0.9710     0.0000
 85 H      0.8964     1.0000     0.1036     0.9680     0.9680     0.0000
 86 H      0.8836     1.0000     0.1164     0.9714     0.9714     0.0000
 87 H      0.7629     1.0000     0.2371     0.8956     0.8956    -0.0000
 88 H      0.8725     1.0000     0.1275     0.9891     0.9891     0.0000
 89 H      0.8313     1.0000     0.1687     0.9445     0.9445    -0.0000
 90 H      0.8937     1.0000     0.1063     0.9701     0.9701     0.0000
 91 H      0.8945     1.0000     0.1055     0.9705     0.9705     0.0000
 92 H      0.8922     1.0000     0.1078     0.9681     0.9681     0.0000
 93 H      0.7699     1.0000     0.2301     0.8561     0.8561     0.0000
 94 H      0.8463     1.0000     0.1537     0.9509     0.9509     0.0000
 95 H      0.8973     1.0000     0.1027     0.9714     0.9714     0.0000
 96 H      0.8992     1.0000     0.1008     0.9691     0.9691     0.0000
 97 H      0.8961     1.0000     0.1039     0.9751     0.9751    -0.0000
 98 H      0.8406     1.0000     0.1594     0.9493     0.9493     0.0000
 99 H      0.8010     1.0000     0.1990     0.9202     0.9202    -0.0000
100 H      0.8946     1.0000     0.1054     0.9805     0.9805    -0.0000
101 H      0.8950     1.0000     0.1050     0.9688     0.9688    -0.0000
102 H      0.8944     1.0000     0.1056     0.9683     0.9683     0.0000
103 H      1.0105     1.0000    -0.0105     1.0138     1.0138     0.0000
104 H      0.9261     1.0000     0.0739     1.0124     1.0124     0.0000
105 H      1.0597     1.0000    -0.0597     1.0098     1.0098    -0.0000
106 H      1.0820     1.0000    -0.0820     1.0105     1.0105     0.0000

  Mayer bond orders larger than 0.100000
B(  0-Ru,  1-P ) :   0.9475 B(  0-Ru,  2-P ) :   0.9310 B(  0-Ru,  3-P ) :   0.8448 
B(  0-Ru,103-H ) :   0.4156 B(  0-Ru,104-H ) :   0.4118 B(  0-Ru,105-H ) :   0.8249 
B(  0-Ru,106-H ) :   0.8204 B(  1-P ,  4-C ) :   0.9610 B(  1-P ,  8-C ) :   0.9047 
B(  1-P , 55-C ) :   0.9523 B(  2-P , 14-C ) :   1.0167 B(  2-P , 21-C ) :   0.9172 
B(  2-P , 28-C ) :   0.9273 B(  3-P , 34-C ) :   0.9093 B(  3-P , 41-C ) :   0.9971 
B(  3-P , 47-C ) :   0.9875 B(  4-C , 15-C ) :   1.3040 B(  4-C , 54-C ) :   1.2782 
B(  5-C ,  6-C ) :   1.3668 B(  5-C , 57-C ) :   1.3782 B(  5-C , 75-H ) :   0.9731 
B(  6-C ,  7-C ) :   1.4191 B(  6-C , 74-H ) :   0.9759 B(  7-C , 55-C ) :   1.3424 
B(  7-C , 73-H ) :   0.9263 B(  8-C ,  9-C ) :   1.3252 B(  8-C , 13-C ) :   1.3445 
B(  9-C , 10-C ) :   1.3961 B(  9-C , 58-H ) :   0.9396 B( 10-C , 11-C ) :   1.3560 
B( 10-C , 59-H ) :   0.9783 B( 11-C , 12-C ) :   1.3850 B( 11-C , 60-H ) :   0.9736 
B( 12-C , 13-C ) :   1.3972 B( 12-C , 61-H ) :   0.9780 B( 13-C , 62-H ) :   0.9347 
B( 14-C , 16-C ) :   1.3207 B( 14-C , 20-C ) :   1.3441 B( 15-C , 26-C ) :   1.4027 
B( 15-C , 79-H ) :   0.9204 B( 16-C , 17-C ) :   1.4566 B( 16-C , 87-H ) :   0.8843 
B( 17-C , 18-C ) :   1.3740 B( 17-C , 86-H ) :   0.9680 B( 18-C , 19-C ) :   1.3670 
B( 18-C , 85-H ) :   0.9733 B( 19-C , 20-C ) :   1.4043 B( 19-C , 84-H ) :   0.9757 
B( 20-C , 83-H ) :   0.9394 B( 21-C , 22-C ) :   1.3492 B( 21-C , 27-C ) :   1.2872 
B( 22-C , 23-C ) :   1.4120 B( 22-C , 88-H ) :   0.9387 B( 23-C , 24-C ) :   1.3631 
B( 23-C , 91-H ) :   0.9792 B( 24-C , 25-C ) :   1.3740 B( 24-C , 92-H ) :   0.9755 
B( 25-C , 27-C ) :   1.3882 B( 25-C , 90-H ) :   0.9742 B( 26-C , 37-C ) :   1.3510 
B( 26-C , 80-H ) :   0.9685 B( 27-C , 89-H ) :   0.9578 B( 28-C , 29-C ) :   1.2753 
B( 28-C , 33-C ) :   1.2315 B( 29-C , 30-C ) :   1.3752 B( 29-C , 94-H ) :   0.9517 
B( 30-C , 31-C ) :   1.3487 B( 30-C , 95-H ) :   0.9880 B( 31-C , 32-C ) :   1.3655 
B( 31-C , 96-H ) :   0.9801 B( 32-C , 33-C ) :   1.4168 B( 32-C , 97-H ) :   0.9782 
B( 33-C , 93-H ) :   0.9285 B( 34-C , 35-C ) :   1.2640 B( 34-C , 40-C ) :   1.2791 
B( 35-C , 36-C ) :   1.3944 B( 35-C , 67-H ) :   0.9474 B( 36-C , 38-C ) :   1.3599 
B( 36-C , 66-H ) :   0.9833 B( 37-C , 48-C ) :   1.3510 B( 37-C , 81-H ) :   0.9813 
B( 38-C , 39-C ) :   1.3693 B( 38-C , 65-H ) :   0.9811 B( 39-C , 40-C ) :   1.4129 
B( 39-C , 64-H ) :   0.9770 B( 40-C , 63-H ) :   0.9236 B( 41-C , 42-C ) :   1.2414 
B( 41-C , 46-C ) :   1.3165 B( 42-C , 43-C ) :   1.3820 B( 42-C , 98-H ) :   0.9756 
B( 43-C , 44-C ) :   1.3539 B( 43-C ,102-H ) :   0.9756 B( 44-C , 45-C ) :   1.3654 
B( 44-C ,101-H ) :   0.9785 B( 45-C , 46-C ) :   1.4104 B( 45-C ,100-H ) :   0.9828 
B( 46-C , 99-H ) :   0.9174 B( 47-C , 49-C ) :   1.3181 B( 47-C , 53-C ) :   1.2391 
B( 48-C , 54-C ) :   1.3818 B( 48-C , 82-H ) :   0.9867 B( 49-C , 50-C ) :   1.3965 
B( 49-C , 68-H ) :   0.9347 B( 50-C , 51-C ) :   1.3525 B( 50-C , 69-H ) :   0.9830 
B( 51-C , 52-C ) :   1.3738 B( 51-C , 70-H ) :   0.9782 B( 52-C , 53-C ) :   1.4375 
B( 52-C , 71-H ) :   0.9643 B( 53-C , 72-H ) :   0.9274 B( 54-C , 78-H ) :   0.9468 
B( 55-C , 56-C ) :   1.2755 B( 56-C , 57-C ) :   1.3948 B( 56-C , 77-H ) :   0.9469 
B( 57-C , 76-H ) :   0.9736 B(103-H ,104-H ) :   0.5430 

-------
TIMINGS
-------

Total SCF time: 0 days 0 hours 33 min 12 sec 

Total time                  ....    1992.739 sec
Sum of individual times     ....    1939.144 sec  ( 97.3%)

SCF preparation             ....       0.401 sec  (  0.0%)
Fock matrix formation       ....    1896.494 sec  ( 95.2%)
  Startup                   ....       0.212 sec  (  0.0% of F)
  Split-RI-J                ....    1010.023 sec  ( 53.3% of F)
  XC integration            ....     938.563 sec  ( 49.5% of F)
    XC Preparation          ....       0.000 sec  (  0.0% of XC)
    Basis function eval.    ....     163.692 sec  ( 17.4% of XC)
    Density eval.           ....     393.496 sec  ( 41.9% of XC)
    XC-Functional eval.     ....       7.346 sec  (  0.8% of XC)
    XC-Potential eval.      ....     366.065 sec  ( 39.0% of XC)
Diagonalization             ....       0.000 sec  (  0.0%)
Density matrix formation    ....       1.714 sec  (  0.1%)
Total Energy calculation    ....       0.265 sec  (  0.0%)
Population analysis         ....       0.911 sec  (  0.0%)
Orbital Transformation      ....       3.281 sec  (  0.2%)
Orbital Orthonormalization  ....       0.000 sec  (  0.0%)
DIIS solution               ....      17.611 sec  (  0.9%)
SOSCF solution              ....      18.467 sec  (  0.9%)
Finished LeanSCF after 1993.0 sec

Maximum memory used throughout the entire LEANSCF-calculation: 807.9 MB

-------------------------   --------------------
FINAL SINGLE POINT ENERGY     -3207.261477247182
-------------------------   --------------------


------------------------------------------------------------------------------
                              ORCA PROPERTY CALCULATIONS
------------------------------------------------------------------------------

GBWName                                 ... 1b_def2tzvp.gbw
Number of atoms                         ...    107
Number of basis functions               ...   2119
Max core memory                         ...   4096 MB

Electric properties:
Dipole moment                           ... YES
Quadrupole moment                       ...  NO
Static polarizability (Dipole/Dipole)   ...  NO
Static polarizability (Dipole/Quad.)    ...  NO
Static polarizability (Quad./Quad.)     ...  NO
Static polarizability (Velocity)        ...  NO
Static hyperpolarizability              ...  NO

Atomic electric properties:
Dipole moment                           ...  NO
Quadrupole moment                       ...  NO
Static polarizability                   ...  NO

Choice of electric origin               ... Center of mass
Position of electric origin             ...     0.003888     0.051810     0.050274

General magnetic properties:
Magnetizability                         ...  NO

EPR properties:
g-Tensor (aka g-matrix)                 ...  NO
Zero-Field splitting spin-orbit         ...  NO
Zero-field splitting spin-spin          ...  NO
Hyperfine couplings                     ...  NO (   0 nuclei)
Quadrupole couplings                    ...  NO (   0 nuclei)
Contact density                         ...  NO (   0 nuclei)

NMR properties:
Chemical shifts                         ...  NO (   0 nuclei)
Spin-rotation constants                 ...  NO (   0 nuclei)
Spin-spin couplings                     ...  NO (   0 nuclei,    0 pairs)

Choice of magnetic origin               ... GIAO
Position of magnetic origin             ...     0.000000     0.000000     0.000000

Properties with geometric perturbations:
SCF Hessian                             ...  NO
IR spectrum                             ...  NO
VCD spectrum                            ...  NO
X-ray spectroscopy properties:
SCF XES/XAS/RIXS spectra                ...  NO

SCF SOC stabilization energy            ...  NO
Diagonal Born-Oppenheimer correction    ...  NO

-------------
DIPOLE MOMENT
-------------

Method             : SCF
Type of density    : Electron Density
Multiplicity       :   1
Irrep              :   0
Energy             : -3207.2614772471824836 Eh
Basis              : AO
                                X                 Y                 Z
Electronic contribution:      2.177432476      39.069998204      29.603593839
Nuclear contribution   :     -2.224649319     -39.666209821     -29.683413549
                        -----------------------------------------
Total Dipole Moment    :     -0.047216843      -0.596211617      -0.079819711
                        -----------------------------------------
Magnitude (a.u.)       :      0.603381230
Magnitude (Debye)      :      1.533673204



--------------------
Rotational spectrum 
--------------------
 
Rotational constants in cm-1:             0.001786             0.001454             0.001229 
Rotational constants in MHz :            53.554784            43.596668            36.850829 

Dipole components along the rotational axes: 
x,y,z [a.u.] :    -0.044895     0.592462    -0.105082 
x,y,z [Debye]:    -0.114115     1.505918    -0.267098 

 

Dipole moment calculation done in   0.0 sec 

Maximum memory used throughout the entire PROP-calculation: 658.9 MB

--------------------------------
SUGGESTED CITATIONS FOR THIS RUN
--------------------------------

Below you find a list of papers that are relevant to this ORCA run
We neither can nor want to force you to cite these papers, but we appreciate if you do
You receive ORCA, which is the product of decades of hard work by many enthusiastic individuals, for free
The only thing we kindly ask in return is that you cite our papers,
We deeply appreciate it, if you show your appreciation for ORCA by not just citing the generic ORCA reference.

Please note that relegating all ORCA citations to the supporting information does *not* help us.
SI sections are not indexed - citations you put there will not count into any citation statistics
But we need these citations in order to attract the funding resources that allow us to do what we are doing

Therefore, if you are a happy ORCA user, please consider citing a few of the papers listed below in the main body of your paper

In addition to the list printed below, the program has created the file 1b_def2tzvp.bibtex that contains the list in bibtex format
You can import this file easily into all common literature databanks and citation aid programs

It goes without saying that in many instances, there are alternative algorithms to achieve similar
results as the ones you have gotten from ORCA. It is, of course, also the case that in some instances
ORCA just re-implements algorithms worked out by others. We are fully aware of that and we are also
fully appreciative of our colleagues work. Hence this citation list should not be read as indicating
that the listed papers, which are focused on our own work, are the only ones worth citing. It simply
meant to make it easier for users to cite ORCA specific papers. It is not a substitute for doing your
own literature research and citing the relevant literature in a scientifically appropriate manner.

List of essential papers. We consider these as the minimum necessary citations

  1. Neese, F.
     Software update: the ORCA program system, version 6.0
     WIRES Comput. Molec. Sci. 2025 15(1), e70019
     doi.org/10.1002/wcms.70019

List of papers to cite with high priority. The work reported in these papers was absolutely
necessary for this run to complete.
Our perspective: the developers of density functionals and basis sets usually get cited in chemistry papers
Good! But without the algorithms to do something with them, the functionals or basis sets would not do anything.
Hence, in our opinion, the algorithm design and method developments papers are equally worthy of getting cited

  1. Neese, F.
     An improvement of the resolution of the identity approximation for the formation of the Coulomb matrix
     J. Comp. Chem. 2003 24(14), 1740-1747
     doi.org/10.1002/jcc.10318
  2. Neese, F.
     The SHARK Integral Generation and Digestion System
     J. Comp. Chem. 2022 44(3), 381
     doi.org/10.1002/jcc.26942

List of suggested additional citations. These are papers that are important in the 'surrounding' of 
of this run, or papers that preceded the highly important papers. If you like your results we are grateful for a citation.

  1. Neese, F.
     The ORCA program system
     WIRES Comput. Molec. Sci. 2012 2(1), 73-78
     doi.org/10.1002/wcms.81
  2. Neese, F.
     Software update: the ORCA program system, version 4.0
     WIRES Comput. Molec. Sci. 2018 8(1), 1-6
     doi.org/10.1002/wcms.1327
  3. Neese, F.; Wennmohs, F.; Becker, U.; Riplinger, C.
     The ORCA quantum chemistry program package
     J. Chem. Phys. 2020 152(22), 224108
     doi.org/10.1063/5.0004608
  4. Neese, F.
     Software update: The ORCA program system—Version 5.0
     WIRES Comput. Molec. Sci. 2022 12(1), e1606
     doi.org/10.1002/wcms.1606

List of optional additional citations

  1. Neese, F.
     Approximate second-order SCF convergence for spin unrestricted wavefunctions
     Chem. Phys. Lett. 2000 325(1-3), 93-98
     doi.org/10.1016/s0009-2614(00)00662-x

Timings for individual modules:

Sum of individual times          ...     2069.389 sec (=  34.490 min)
Startup calculation              ...       36.491 sec (=   0.608 min)   1.8 %
SCF iterations                   ...     2032.501 sec (=  33.875 min)  98.2 %
Property calculations            ...        0.398 sec (=   0.007 min)   0.0 %
                             ****ORCA TERMINATED NORMALLY****
TOTAL RUN TIME: 0 days 0 hours 34 minutes 29 seconds 696 msec
