
                                 *****************
                                 * O   R   C   A *
                                 *****************

                                            #,                                       
                                            ###                                      
                                            ####                                     
                                            #####                                    
                                            ######                                   
                                           ########,                                 
                                     ,,################,,,,,                         
                               ,,#################################,,                 
                          ,,##########################################,,             
                       ,#########################################, ''#####,          
                    ,#############################################,,   '####,        
                  ,##################################################,,,,####,       
                ,###########''''           ''''###############################       
              ,#####''   ,,,,##########,,,,          '''####'''          '####       
            ,##' ,,,,###########################,,,                        '##       
           ' ,,###''''                  '''############,,,                           
         ,,##''                                '''############,,,,        ,,,,,,###''
      ,#''                                            '''#######################'''  
     '                                                          ''''####''''         
             ,#######,   #######,   ,#######,      ##                                
            ,#'     '#,  ##    ##  ,#'     '#,    #''#        ,####,    ,#,          
            ##       ##  ##   ,#'  ##            #'  '#       #'       ,# #          
            ##       ##  #######   ##           ,######,      #####,      #          
            '#,     ,#'  ##    ##  '#,     ,#' ,#      #,     #,   #      #          
             '#######'   ##     ##  '#######'  #'      '#     '####' #    #          



                #########################################################
                #                        -***-                          #
                #          Department of theory and spectroscopy        #
                #                                                       #
                #                      Frank Neese                      #
                #                                                       #
                #     Directorship, Architecture, Infrastructure        #
                #                    SHARK, DRIVERS                     #
                #        Core code/Algorithms in most modules           #
                #                                                       #
                #        Max Planck Institute fuer Kohlenforschung      #
                #                Kaiser Wilhelm Platz 1                 #
                #                 D-45470 Muelheim/Ruhr                 #
                #                      Germany                          #
                #                                                       #
                #                  All rights reserved                  #
                #                        -***-                          #
                #########################################################


                         Program Version 6.1.1  -  RELEASE   -
                                (GIT: $487d211c$)
                          ($2025-11-21 10:33:24 +0100$)


 With contributions from (in alphabetic order):
[Max-Planck-Institut fuer Kohlenforschung]                               
  Daniel Aravena         : Magnetic Suceptibility                        
  Michael Atanasov       : Ab Initio Ligand Field Theory (pilot matlab implementation)
  Alexander A. Auer      : GIAO ZORA, VPT2 properties, NMR spectrum      
  Ute Becker             : All parallelization in ORCA, NUMFREQ, NUMCALC 
  Giovanni Bistoni       : ED, misc. LED, open-shell LED, HFLD           
  Dmytro Bykov           : pre 5.0 version of the SCF Hessian            
  Marcos Casanova-Páez   : Triplet and SCS-CIS(D). UHF-(DLPNO)-IP/EA/STEOM-CCSD. UHF-CVS-IP/STEOM-CCSD   
  Vijay G. Chilkuri      : MRCI spin determinant printing, contributions to CSF-ICE 
  Pauline Colinet        : FMM embedding                                 
  Dipayan Datta          : RHF DLPNO-CCSD density                        
  Achintya Kumar Dutta   : EOM-CC, STEOM-CC                              
  Nicolas Foglia         : Exact transition moments, OPA infrastructure, MCD improvements    
  Dmitry Ganyushin       : Spin-Orbit,Spin-Spin,Magnetic field MRCI      
  Miquel Garcia-Rates    : C-PCM and meta-GGA Hessian, CCSD/C-PCM, Gaussian charge scheme 
  Tiago L. C. Gouveia    : GS-ROHF, GS-ROCIS                             
  Yang Guo               : DLPNO-NEVPT2, F12-NEVPT2, CIM, IAO-localization        
  Andreas Hansen         : Spin unrestricted coupled pair/coupled cluster methods 
  Ingolf Harden          : AUTO-CI MPn and infrastructure                
  Benjamin Helmich-Paris : MC-RPA, TRAH-(SCF,CASSCF), AVAS, COSX integrals, SCF dyn. polar., MC-PDFT, srDFT 
  Lee Huntington         : MR-EOM, pCC                                   
  Robert Izsak           : Overlap fitted RIJCOSX, COSX-SCS-MP3, EOM     
  Riya Kayal             : Wick's Theorem for AUTO-CI, AUTO-CI UHF-CCSDT 
  Emily Kempfer          : AUTO-CI RHF CISDT and CCSDT, approximate NEVPT4
  Christian Kollmar      : KDIIS, OOCD, Brueckner-CCSD(T), CCSD density, CASPT2, CASPT2-K, improved NEVPT2 
  Axel Koslowski         : Symmetry handling                             
  Simone Kossmann        : meta-GGA functionals, TD-DFT gradient, OOMP2, (MP2 Hessian; deprecated post 5.0) 
  Lucas Lang             : DCDCAS, Hyperfine gauge corrections, ICE-SOC+SSC
  Marvin Lechner         : AUTO-CI (C++ implementation), FIC-MRCC        
  Spencer Leger          : CASSCF response                               
  Dagmar Lenk            : GEPOL surface, SMD, ORCA-2-JSON               
  Dimitrios Liakos       : Extrapolation schemes; Compound Job, Property file
  Dimitrios Manganas     : Further ROCIS development; embedding schemes. LFT, Crystal Embedding 
  Dimitrios Pantazis     : SARC Basis sets                               
  Anastasios Papadopoulos: AUTO-CI, single reference methods and gradients 
  Taras Petrenko         : pre 6.0 DFT Hessian and TD-DFT gradient,  ECA, NRVS 
  Petra Pikulova         : Analytic Raman intensities                    
  Peter Pinski           : DLPNO-MP2, DLPNO-MP2 Gradient                 
  Shashank Vittal Rao    : ES-AILFT, MagRelax                            
  Christoph Reimann      : Effective Core Potentials                     
  Marius Retegan         : Local ZFS, SOC                                
  Christoph Riplinger    : Optimizer, TS searches, QM/MM, DLPNO-CCSD(T), (RO)-DLPNO pert. Triples 
  Michael Roemelt        : Original ROCIS implementation, recursive CI coupling coefficients
  Masaaki Saitow         : Open-shell DLPNO-CCSD energy and density      
  Barbara Sandhoefer     : DKH picture change effects                    
  Yorick L. A. Schmerwitz: GMF and freeze-and-release deltaSCF, NEB S-IDPP initial path                    
  Kantharuban Sivalingam : CASSCF convergence/infrastructure, NEVPT2, NEVPT3, NEVPT4(SD), FIC-MRCI and CEPA variants
  Bernardo de Souza      : ESD, SOC TD-DFT                               
  Georgi L. Stoychev     : AutoAux, RI-MP2 NMR, DLPNO-MP2 response, X2C  
  Van Anh Tran           : RI-MP2 g-tensors                              
  Willem Van den Heuvel  : Paramagnetic NMR                              
  Zikuan Wang            : NOTCH, Electric field optimization            
  Frank Wennmohs         : Technical directorship and infrastructure     
  Hang Xu                : AUTO-CI-Response properties                   
                                                                         
[FACCTs GmbH]                                                            
  Markus Bursch, Nicolas Foglia, Miquel Garcia-Rates, Ingolf Harden, Hagen Neugebauer, Anastasios Papadopoulos, 
  Christoph Riplinger, Bernardo de Souza, Georgi L. Stoychev                                                    
                                                                 
  APM, various basis sets, CI-OPT, improved COSX, DLPNO-Multilevel,           
  DOCKER, DRACO, updates on ESD, Fragmentator, GOAT, IRC, LR-CPCM, L-BFGS, MBIS, meta-GGA TD-DFT gradient, ML-optimized integration grids, 
  MM, NACMEs, nearIR, NEB, NEB-TS, NL-DFT gradient (VV10), 2- and 3-layer-ONIOM, interface openCOSMO-RS, QMMM,   
  Crystal-QMMM, RESP, rigid body optimization, SF, symmetry and pop. for TD-DFT, various functionals, SOLVATOR                                   
                                                                         
[Other institutions]                                                     
  V. Asgeirsson          : NEB                                           
  Christoph Bannwarth    : sTDA-DFT, sTD-DFT, PBEh-3c, B97-3c, D3        
  Giovanni Bistoni       : ETS/NOCV, ADLD/ADEX, COVALED                  
  Martin Brehm           : Molecular dynamics                            
  Ronald Cardenas        : ETS/NOCV                                      
  Martina Colucci        : COVALED                                       
  Sebastian Ehlert       : rSCAN, r2SCAN, r2SCAN-3c, D4, dhf basis sets  
  Marvin Friede          : D4 for Fr, Ra, Ac-Lr                          
  Lars Goerigk           : TD-DFT with DH, B97 family of functionals     
  Stefan Grimme          : VdW corrections, initial TS optimization, DFT functionals, gCP, sTDA/sTD-DF 
  Waldemar Hujo          : DFT-NL                                        
  H. Jonsson             : NEB                                           
  Holger Kruse           : gCP                                           
  Marcel Mueller         : wB97X-3c, vDZP basis set                      
  Hagen Neugebauer       : wr2SCAN, Native XTB                           
  Gianluca Regni         : ADLD/ADEX                                     
  Tobias Risthaus        : pre 6.0 range-separated hybrid DFT and stability analysis
  Lukas Wittmann         : regularized MP2, r2SCAN double-hybrids, wr2SCAN        
                                                                         
We gratefully acknowledge several colleagues who have allowed us to      
interface, adapt or use parts of their codes:                            
  Ed Valeev, F. Pavosevic, A. Kumar             : LibInt (2-el integral package), F12 methods 
  Garnet Chan, S. Sharma, J. Yang, R. Olivares  : DMRG                   
  Ulf Ekstrom                                   : XCFun DFT Library      
  Mihaly Kallay                                 : mrcc  (arbitrary order and MRCC methods)
  Frank Weinhold                                : gennbo (NPA and NBO analysis)           
  Simon Mueller                                 : openCOSMO-RS                            
  Christopher J. Cramer and Donald G. Truhlar   : smd solvation model                     
  S Lehtola, MJT Oliveira, MAL Marques          : LibXC Library                           
  Liviu Ungur et al                             : ANISO software                          


 Your calculation uses the libint2 library for the computation of 2-el integrals
 For citations please refer to: http://libint.valeyev.net

 Your ORCA version has been built with support for libXC version: 7.0.0
 For citations please refer to: https://libxc.gitlab.io

 This ORCA versions uses:
   CBLAS   interface :  Fast vector & matrix operations
   LAPACKE interface :  Fast linear algebra routines
   SCALAPACK package :  Parallel linear algebra routines
   Shared memory     :  Shared parallel matrices
   BLAS/LAPACK       :  OpenBLAS 0.3.29  USE64BITINT DYNAMIC_ARCH NO_AFFINITY Cooperlake SINGLE_THREADED
        Core in use  :  Cooperlake
   Copyright (c) 2011-2014, The OpenBLAS Project


  ***********************************
  * Starting time: Mon Jul 13 23:25:54 2026
  * Host name:     c1-5
  * Process ID:    2587879
  * Working dir.:  /cluster/projects/nn14654k/ylvaos/TPhP_bsse/orca/opt1_bp86
  ***********************************

Warning: RI is on but no J-basis has been assigned. Assigning Def2/J (nothing to worry about!)
================================================================================

----- Orbital basis set information -----
Your calculation utilizes the basis: def2-QZVP
   F. Weigend and R. Ahlrichs, Phys. Chem. Chem. Phys. 7, 3297 (2005).

----- AuxJ basis set information -----
Your calculation utilizes the auxiliary basis: def2/J
   H-Rn: F. Weigend, Phys. Chem. Chem. Phys. 8, 1057 (2006).
   Fr-Lr: K. Eichkorn, F. Weigend, O. Treutler, R. Ahlrichs; Theor. Chem. Acc. 97, 119 (1997).

================================================================================
                                        WARNINGS
                       Please study these warnings very carefully!
================================================================================


================================================================================
                                       INPUT FILE
================================================================================
NAME = TPhP_def2qzvp.inp
|  1> ! BP86 def2-QZVP VeryTightSCF defgrid3
|  2> 
|  3> *xyz 0 1
|  4>   P          -2.23335238093662      1.26630433347071     -0.14480736191397
|  5>   C          -3.17354547274218      0.72788610800673     -1.63155613349146
|  6>   C          -4.28235759336237      1.40717707649288     -2.15045519705861
|  7>   C          -2.73533013438309     -0.44181045522253     -2.26970052358871
|  8>   C          -4.94447517206266      0.92004585122523     -3.27991243911499
|  9>   H          -4.63440068945354      2.32322239218967     -1.66935535768693
| 10>   C          -3.40313608738305     -0.93575156669368     -3.38971659043926
| 11>   H          -1.85953273973757     -0.97189774365071     -1.88082797148354
| 12>   C          -4.51012188792971     -0.25271226540692     -3.89895974422482
| 13>   H          -5.80850130605865      1.46128894527484     -3.67670770012163
| 14>   H          -3.05263879810440     -1.85226310206907     -3.87328192982297
| 15>   H          -5.03115567518013     -0.63301852663098     -4.78245215059272
| 16>   C          -3.06258435584142      0.29002820368579      1.17557488356205
| 17>   C          -2.45303500430232      0.28612967584872      2.43876771877009
| 18>   C          -4.24743775455895     -0.43332730577243      0.99344205875477
| 19>   C          -3.02560886338018     -0.40748317311214      3.50440877873836
| 20>   H          -1.51776519339383      0.83608796672730      2.58720048186482
| 21>   C          -4.81518090324435     -1.13873702091007      2.05706177221231
| 22>   H          -4.73300520317328     -0.44601805176046      0.01434839075353
| 23>   C          -4.20924153423702     -1.12434765096751      3.31407154114513
| 24>   H          -2.54121823481779     -0.39667815739587      4.48517953566244
| 25>   H          -5.74019441814209     -1.70178373198931      1.90131392362402
| 26>   H          -4.65656149661553     -1.67635964454681      4.14585572581564
| 27>   C          -2.94688510900037      2.93713346247516      0.14371531660582
| 28>   C          -4.01602279605028      3.19795402611964      1.00919725674912
| 29>   C          -2.36889206975656      4.00352808041267     -0.56062981482029
| 30>   C          -4.50260007586930      4.49876401564898      1.15911926566048
| 31>   H          -4.47491653638971      2.37998138978868      1.57033599857938
| 32>   C          -2.86190131625911      5.30041108367437     -0.42119469220601
| 33>   H          -1.52205306183268      3.81224492962065     -1.22809321026049
| 34>   C          -3.93077429255410      5.55082897439999      0.44254527617237
| 35>   H          -5.33731930768447      4.68970624672592      1.84008686276579
| 36>   H          -2.40405926124844      6.12091337191859     -0.98139595205205
| 37>   H          -4.31454327431425      6.56841726242196      0.56048098144235
| 38> *
| 39> 
| 40>                          ****END OF INPUT****
================================================================================

                       ****************************
                       * Single Point Calculation *
                       ****************************

---------------------------------
CARTESIAN COORDINATES (ANGSTROEM)
---------------------------------
  P     -2.233352    1.266304   -0.144807
  C     -3.173545    0.727886   -1.631556
  C     -4.282358    1.407177   -2.150455
  C     -2.735330   -0.441810   -2.269701
  C     -4.944475    0.920046   -3.279912
  H     -4.634401    2.323222   -1.669355
  C     -3.403136   -0.935752   -3.389717
  H     -1.859533   -0.971898   -1.880828
  C     -4.510122   -0.252712   -3.898960
  H     -5.808501    1.461289   -3.676708
  H     -3.052639   -1.852263   -3.873282
  H     -5.031156   -0.633019   -4.782452
  C     -3.062584    0.290028    1.175575
  C     -2.453035    0.286130    2.438768
  C     -4.247438   -0.433327    0.993442
  C     -3.025609   -0.407483    3.504409
  H     -1.517765    0.836088    2.587200
  C     -4.815181   -1.138737    2.057062
  H     -4.733005   -0.446018    0.014348
  C     -4.209242   -1.124348    3.314072
  H     -2.541218   -0.396678    4.485180
  H     -5.740194   -1.701784    1.901314
  H     -4.656561   -1.676360    4.145856
  C     -2.946885    2.937133    0.143715
  C     -4.016023    3.197954    1.009197
  C     -2.368892    4.003528   -0.560630
  C     -4.502600    4.498764    1.159119
  H     -4.474917    2.379981    1.570336
  C     -2.861901    5.300411   -0.421195
  H     -1.522053    3.812245   -1.228093
  C     -3.930774    5.550829    0.442545
  H     -5.337319    4.689706    1.840087
  H     -2.404059    6.120913   -0.981396
  H     -4.314543    6.568417    0.560481

----------------------------
CARTESIAN COORDINATES (A.U.)
----------------------------
  NO LB      ZA    FRAG     MASS         X           Y           Z
   0 P    15.0000    0    30.974   -4.220424    2.392968   -0.273646
   1 C     6.0000    0    12.011   -5.997132    1.375505   -3.083194
   2 C     6.0000    0    12.011   -8.092483    2.659179   -4.063771
   3 C     6.0000    0    12.011   -5.169025   -0.834901   -4.289112
   4 C     6.0000    0    12.011   -9.343704    1.738635   -6.198136
   5 H     1.0000    0     1.008   -8.757748    4.390254   -3.154624
   6 C     6.0000    0    12.011   -6.430995   -1.768314   -6.405636
   7 H     1.0000    0     1.008   -3.514008   -1.836621   -3.554250
   8 C     6.0000    0    12.011   -8.522895   -0.477557   -7.367966
   9 H     1.0000    0     1.008  -10.976477    2.761436   -6.947971
  10 H     1.0000    0     1.008   -5.768651   -3.500270   -7.319442
  11 H     1.0000    0     1.008   -9.507506   -1.196232   -9.037525
  12 C     6.0000    0    12.011   -5.787446    0.548074    2.221515
  13 C     6.0000    0    12.011   -4.635564    0.540707    4.608603
  14 C     6.0000    0    12.011   -8.026494   -0.818870    1.877333
  15 C     6.0000    0    12.011   -5.717572   -0.770032    6.622373
  16 H     1.0000    0     1.008   -2.868161    1.579977    4.889100
  17 C     6.0000    0    12.011   -9.099373   -2.151901    3.887283
  18 H     1.0000    0     1.008   -8.944084   -0.842852    0.027115
  19 C     6.0000    0    12.011   -7.954314   -2.124709    6.262688
  20 H     1.0000    0     1.008   -4.802207   -0.749613    8.475761
  21 H     1.0000    0     1.008  -10.847395   -3.215905    3.592963
  22 H     1.0000    0     1.008   -8.799626   -3.167861    7.834532
  23 C     6.0000    0    12.011   -5.568806    5.550378    0.271583
  24 C     6.0000    0    12.011   -7.589183    6.043257    1.907106
  25 C     6.0000    0    12.011   -4.476557    7.565572   -1.059437
  26 C     6.0000    0    12.011   -8.508681    8.501432    2.190418
  27 H     1.0000    0     1.008   -8.456367    4.497513    2.967505
  28 C     6.0000    0    12.011   -5.408210   10.016325   -0.795943
  29 H     1.0000    0     1.008   -2.876263    7.204099   -2.320760
  30 C     6.0000    0    12.011   -7.428087   10.489547    0.836289
  31 H     1.0000    0     1.008  -10.086072    8.862260    3.477260
  32 H     1.0000    0     1.008   -4.543014   11.566850   -1.854570
  33 H     1.0000    0     1.008   -8.153305   12.412510    1.059156

--------------------------------
INTERNAL COORDINATES (ANGSTROEM)
--------------------------------
 P      0   0   0     0.000000000000     0.00000000     0.00000000
 C      1   0   0     1.839641037044     0.00000000     0.00000000
 C      2   1   0     1.400055990620   124.21412724     0.00000000
 C      2   1   3     1.402658545554   116.87714826   180.08782352
 C      3   2   1     1.396914521468   120.38826900   180.52327461
 H      3   2   1     1.092945752249   119.90821215     0.42139684
 C      4   2   1     1.394409768492   120.74393485   178.87678042
 H      4   2   1     1.095096101537   119.46945188   358.97318579
 C      5   3   2     1.395436828211   120.27967503     0.28020945
 H      5   3   2     1.094043749693   119.67373673   180.11986949
 H      7   4   2     1.093927411541   119.89370633   180.33466917
 H      9   5   3     1.093923165443   120.14606908   179.90963701
 C      1   2   3     1.839605942576   101.20798968    94.04492081
 C     13   1   2     1.402576824777   116.87208302   169.84546877
 C     13   1   2     1.400104687296   124.21353397   349.71144499
 C     14  13   1     1.394464225799   120.74294722   178.83737795
 H     14  13   1     1.095087223039   119.46200284   358.92749575
 C     15  13   1     1.396861497768   120.38497556   180.56767528
 H     15  13   1     1.092959840483   119.90070441     0.48080184
 C     18  15  13     1.395508198497   120.27686602     0.28083370
 H     16  14  13     1.093920612769   119.89549196   180.33386995
 H     18  15  13     1.094042500975   119.67926206   180.12426381
 H     20  18  15     1.093927474591   120.14210328   179.90959331
 C      1   2   3     1.839577198263   101.20667247   350.06990150
 C     24   1   2     1.400050623729   124.21926293    93.85600271
 C     24   1   2     1.402631633304   116.86844184   273.96777545
 C     25  24   1     1.396903964792   120.38581365   180.55916818
 H     25  24   1     1.092949855342   119.90662728     0.45660229
 C     26  24   1     1.394419518905   120.74340674   178.84459228
 H     26  24   1     1.095094942629   119.46736652   358.94388076
 C     27  25  24     1.395458235243   120.27898396     0.27610742
 H     27  25  24     1.094043874750   119.67541416   180.11882110
 H     29  26  24     1.093923582287   119.89462568   180.33623389
 H     31  27  25     1.093925676570   120.14514420   179.90678468

---------------------------
INTERNAL COORDINATES (A.U.)
---------------------------
 P      0   0   0     0.000000000000     0.00000000     0.00000000
 C      1   0   0     3.476417744737     0.00000000     0.00000000
 C      2   1   0     2.645722394428   124.21412724     0.00000000
 C      2   1   3     2.650640510502   116.87714826   180.08782352
 C      3   2   1     2.639785878072   120.38826900   180.52327461
 H      3   2   1     2.065368150983   119.90821215     0.42139684
 C      4   2   1     2.635052580915   120.74393485   178.87678042
 H      4   2   1     2.069431722230   119.46945188   358.97318579
 C      5   3   2     2.636993442506   120.27967503     0.28020945
 H      5   3   2     2.067443065448   119.67373673   180.11986949
 H      7   4   2     2.067223218202   119.89370633   180.33466917
 H      9   5   3     2.067215194239   120.14606908   179.90963701
 C      1   2   3     3.476351425803   101.20798968    94.04492081
 C     13   1   2     2.650486080614   116.87208302   169.84546877
 C     13   1   2     2.645814417809   124.21353397   349.71144499
 C     14  13   1     2.635155490311   120.74294722   178.83737795
 H     14  13   1     2.069414944300   119.46200284   358.92749575
 C     15  13   1     2.639685677800   120.38497556   180.56767528
 H     15  13   1     2.065394773886   119.90070441     0.48080184
 C     18  15  13     2.637128312802   120.27686602     0.28083370
 H     16  14  13     2.067210370385   119.89549196   180.33386995
 H     18  15  13     2.067440705714   119.67926206   180.12426381
 H     20  18  15     2.067223337350   120.14210328   179.90959331
 C      1   2   3     3.476297106923   101.20667247   350.06990150
 C     24   1   2     2.645712252474   124.21926293    93.85600271
 C     24   1   2     2.650589653719   116.86844184   273.96777545
 C     25  24   1     2.639765928846   120.38581365   180.55916818
 H     25  24   1     2.065375904705   119.90662728     0.45660229
 C     26  24   1     2.635071006526   120.74340674   178.84459228
 H     26  24   1     2.069429532210   119.46736652   358.94388076
 C     27  25  24     2.637033895934   120.27898396     0.27610742
 H     27  25  24     2.067443301772   119.67541416   180.11882110
 H     29  26  24     2.067215981960   119.89462568   180.33623389
 H     31  27  25     2.067219939581   120.14514420   179.90678468

---------------------
BASIS SET INFORMATION
---------------------
There are 3 groups of distinct atoms

 Group   1 Type P   : 20s14p4d2f1g contracted to 9s6p4d2f1g pattern {1031111111/821111/1111/11/1}
 Group   2 Type C   : 15s8p3d2f1g contracted to 7s4p3d2f1g pattern {8211111/5111/111/11/1}
 Group   3 Type H   : 7s3p2d1f contracted to 4s3p2d1f pattern {4111/111/11/1}

Atom   0P    basis set group =>   1
Atom   1C    basis set group =>   2
Atom   2C    basis set group =>   2
Atom   3C    basis set group =>   2
Atom   4C    basis set group =>   2
Atom   5H    basis set group =>   3
Atom   6C    basis set group =>   2
Atom   7H    basis set group =>   3
Atom   8C    basis set group =>   2
Atom   9H    basis set group =>   3
Atom  10H    basis set group =>   3
Atom  11H    basis set group =>   3
Atom  12C    basis set group =>   2
Atom  13C    basis set group =>   2
Atom  14C    basis set group =>   2
Atom  15C    basis set group =>   2
Atom  16H    basis set group =>   3
Atom  17C    basis set group =>   2
Atom  18H    basis set group =>   3
Atom  19C    basis set group =>   2
Atom  20H    basis set group =>   3
Atom  21H    basis set group =>   3
Atom  22H    basis set group =>   3
Atom  23C    basis set group =>   2
Atom  24C    basis set group =>   2
Atom  25C    basis set group =>   2
Atom  26C    basis set group =>   2
Atom  27H    basis set group =>   3
Atom  28C    basis set group =>   2
Atom  29H    basis set group =>   3
Atom  30C    basis set group =>   2
Atom  31H    basis set group =>   3
Atom  32H    basis set group =>   3
Atom  33H    basis set group =>   3
---------------------------------
AUXILIARY/J BASIS SET INFORMATION
---------------------------------
There are 3 groups of distinct atoms

 Group   1 Type P   : 14s5p5d2f1g contracted to 8s4p3d1f1g pattern {71111111/2111/311/2/1}
 Group   2 Type C   : 12s5p4d2f1g contracted to 6s4p3d1f1g pattern {711111/2111/211/2/1}
 Group   3 Type H   : 5s2p1d contracted to 3s1p1d pattern {311/2/1}

Atom   0P    basis set group =>   1
Atom   1C    basis set group =>   2
Atom   2C    basis set group =>   2
Atom   3C    basis set group =>   2
Atom   4C    basis set group =>   2
Atom   5H    basis set group =>   3
Atom   6C    basis set group =>   2
Atom   7H    basis set group =>   3
Atom   8C    basis set group =>   2
Atom   9H    basis set group =>   3
Atom  10H    basis set group =>   3
Atom  11H    basis set group =>   3
Atom  12C    basis set group =>   2
Atom  13C    basis set group =>   2
Atom  14C    basis set group =>   2
Atom  15C    basis set group =>   2
Atom  16H    basis set group =>   3
Atom  17C    basis set group =>   2
Atom  18H    basis set group =>   3
Atom  19C    basis set group =>   2
Atom  20H    basis set group =>   3
Atom  21H    basis set group =>   3
Atom  22H    basis set group =>   3
Atom  23C    basis set group =>   2
Atom  24C    basis set group =>   2
Atom  25C    basis set group =>   2
Atom  26C    basis set group =>   2
Atom  27H    basis set group =>   3
Atom  28C    basis set group =>   2
Atom  29H    basis set group =>   3
Atom  30C    basis set group =>   2
Atom  31H    basis set group =>   3
Atom  32H    basis set group =>   3
Atom  33H    basis set group =>   3
------------------------------------------------------------------------------
                             ORCA STARTUP CALCULATIONS
                           -- RI-GTO INTEGRALS CHOSEN --
------------------------------------------------------------------------------
------------------------------------------------------------------------------
                   ___                                                        
                  /   \      - P O W E R E D   B Y -                         
                 /     \                                                     
                 |  |  |   _    _      __       _____    __    __             
                 |  |  |  | |  | |    /  \     |  _  \  |  |  /  |          
                  \  \/   | |  | |   /    \    | | | |  |  | /  /          
                 / \  \   | |__| |  /  /\  \   | |_| |  |  |/  /          
                |  |  |   |  __  | /  /__\  \  |    /   |      \           
                |  |  |   | |  | | |   __   |  |    \   |  |\   \          
                \     /   | |  | | |  |  |  |  | |\  \  |  | \   \       
                 \___/    |_|  |_| |__|  |__|  |_| \__\ |__|  \__/        
                                                                              
                      - O R C A' S   B I G   F R I E N D -                    
                                      &                                       
                       - I N T E G R A L  F E E D E R -                       
                                                                              
 v1 FN, 2020, v2 2021, v3 2022-2024                                           
------------------------------------------------------------------------------


----------------------
SHARK INTEGRAL PACKAGE
----------------------

Number of atoms                             ...     34
Number of basis functions                   ...   1546
Number of shells                            ...    478
Maximum angular momentum                    ...      4
Integral batch strategy                     ... SHARK/LIBINT Hybrid
RI-J (if used) integral strategy            ... SPLIT-RIJ (Revised 2003 algorithm where possible)
Printlevel                                  ...      1
Contraction scheme used                     ... SEGMENTED contraction
Prescreening option                         ... SCHWARTZ
   Thresh                                   ... 1.000e-12
   Tcut                                     ... 1.000e-14
   Tpresel                                  ... 1.000e-14 
Coulomb Range Separation                    ... NOT USED
Exchange Range Separation                   ... NOT USED
Multipole approximations                    ... NOT USED
Finite Nucleus Model                        ... NOT USED
CABS basis                                  ... NOT available
Auxiliary Coulomb fitting basis             ... AVAILABLE
   # of basis functions in Aux-J            ...   1098
   # of shells in Aux-J                     ...    362
   Maximum angular momentum in Aux-J        ...      4
Auxiliary J/K fitting basis                 ... NOT available
Auxiliary Correlation fitting basis         ... NOT available
Auxiliary 'external' fitting basis          ... NOT available

Checking pre-screening integrals            ... done (  0.0 sec) Dimension = 478
   => SHARK Basis and OBASIS are compatible. Storing Pre-screening
Shell pair information
Shell pair cut-off parameter TPreSel        ...   1.0e-14
Total number of shell pairs                 ...    114481
Shell pairs after pre-screening             ...     79604
Total number of primitive shell pairs       ...    288530
Primitive shell pairs kept                  ...    142298
          la=0 lb=0:  12502 shell pairs
          la=1 lb=0:  17718 shell pairs
          la=1 lb=1:   6117 shell pairs
          la=2 lb=0:  11369 shell pairs
          la=2 lb=1:   8082 shell pairs
          la=2 lb=2:   2627 shell pairs
          la=3 lb=0:   6496 shell pairs
          la=3 lb=1:   4742 shell pairs
          la=3 lb=2:   3036 shell pairs
          la=3 lb=3:    889 shell pairs
          la=4 lb=0:   2399 shell pairs
          la=4 lb=1:   1737 shell pairs
          la=4 lb=2:   1121 shell pairs
          la=4 lb=3:    639 shell pairs
          la=4 lb=4:    130 shell pairs

Checking whether 4 symmetric matrices of dimension 1546 fit in memory
:Max Core in MB      =   4096.00
 MB in use           =    101.50
 MB left             =   3994.50
 MB needed           =     36.49
 Data fit in memory  = YES
Calculating RI/J V-Matrix + Cholesky decomp.... done (  0.0 sec)
Calculating Nuclear repulsion               ... done (  0.0 sec) ENN=   1412.029176502641 Eh

Diagonalization of the overlap matrix:
Smallest eigenvalue                        ... 5.836e-06
Time for diagonalization                   ...    0.329 sec
Threshold for overlap eigenvalues          ... 1.000e-07
Number of eigenvalues below threshold      ... 0
Time for construction of square roots      ...    0.185 sec
Total time needed                          ...    0.517 sec

-------------------
DFT GRID GENERATION
-------------------

General Integration Accuracy     IntAcc      ... 4.959
Radial Grid Type                 RadialGrid  ... OptM3 with GC (2021)
Angular Grid (max. ang.)         AngularGrid ... 6 (Lebedev-590)
Angular grid pruning method      GridPruning ... 4 (adaptive)
Weight generation scheme         WeightScheme... mBecke (2022)
Basis function cutoff            BFCut       ... 1.0000e-12
Integration weight cutoff        WCut        ... 1.0000e-14
Partially contracted basis set               ... off
Rotationally invariant grid construction     ... off
Angular grids for H and He will be reduced by one unit
Diffuse basis detected: some atoms will have their outermost
                        angular grid increased by 1.

Total number of grid points                  ...   408137
Total number of batches                      ...     6395
Average number of points per batch           ...       63
Average number of grid points per atom       ...    12004
Grids setup in   6.2 sec
Initializing property integral containers    ... done (  0.0 sec)

SHARK setup successfully completed in   9.2 seconds

Maximum memory used throughout the entire STARTUP-calculation: 506.8 MB
-------------------------------------------------------------------------------
                                 ORCA GUESS
                   Start orbitals & Density for SCF / CASSCF
-------------------------------------------------------------------------------

------------
SCF SETTINGS
------------
Hamiltonian:
 Density Functional     Method          .... DFT(GTOs)
 Exchange Functional    Exchange        .... B88
   X-Alpha parameter    XAlpha          ....  0.666667
   Becke's b parameter  XBeta           ....  0.004200
 Correlation Functional Correlation     .... P86
 LDA part of GGA corr.  LDAOpt          .... PW91-LDA
 Gradients option       PostSCFGGA      .... off
   NL short-range parameter             ....  4.400000
 RI-approximation to the Coulomb term is turned on
   Number of AuxJ basis functions       .... 1098


General Settings:
 Integral files         IntName         .... TPhP_def2qzvp
 Hartree-Fock type      HFTyp           .... RHF
 Total Charge           Charge          ....    0
 Multiplicity           Mult            ....    1
 Number of Electrons    NEL             ....  138
 Basis Dimension        Dim             .... 1546
 Nuclear Repulsion      ENuc            ....   1412.0291765026 Eh

Convergence Acceleration:
 AO-DIIS                CNVDIIS         .... on
   Start iteration      DIISMaxIt       ....    12
   Startup error        DIISStart       ....  0.200000
   # of expansion vecs  DIISMaxEq       ....     5
   Bias factor          DIISBfac        ....   1.050
   Max. coefficient     DIISMaxC        ....  10.000
 MO-DIIS                CNVKDIIS        .... off
 Trust-Rad. Augm. Hess. CNVTRAH         .... auto
   Auto Start mean grad. ratio tolernc. ....  1.125000
   Auto Start start iteration           ....    50
   Auto Start num. interpolation iter.  ....    10
   Max. Number of Micro iterations      ....    24
   Max. Number of Macro iterations      .... Maxiter - #DIIS iter
   Number of Davidson start vectors     ....     2
   Converg. threshold    (grad. norm)   ....   2.000e-06
   Grad. Scal. Fac. for Micro threshold ....   0.100
   Minimum threshold for Micro iter.    ....   1.000e-02
   NR start threshold (gradient norm)   ....   1.000e-04
   Initial trust radius                 ....   0.400
   Minimum AH scaling param. (alpha)    ....   1.000
   Maximum AH scaling param. (alpha)    .... 1000.000
   Quad. conv. algorithm                .... NR
   White noise on init. David. guess    .... on
   Maximum white noise                  ....   0.010
   Pseudo random numbers                .... off
   Inactive MOs                         .... canonical
   Orbital update algorithm             .... Taylor
   Preconditioner                       .... Diag
   Full preconditioner red. dimension   ....   250
 SOSCF                 CNVSOSCF           .... on
   Start iteration     SOSCFMaxIt         ....   150
   Startup grad/error  SOSCFStart         ....  0.003300
   Hessian update      SOSCFHessUp        .... L-BFGS
   Autom. constraints  SOSCFAutoConstrain .... off
 Level Shifting         CNVShift        .... on
   Level shift para.    LevelShift      ....    0.2500
   Turn off err/grad.   ShiftErr        ....    0.0010
 Zerner damping         CNVZerner       .... off
 Static damping         CNVDamp         .... on
   Fraction old density DampFac         ....    0.7000
   Max. Damping (<1)    DampMax         ....    0.9800
   Min. Damping (>=0)   DampMin         ....    0.0000
   Turn off err/grad.   DampErr         ....    0.1000

SCF Procedure:
 Maximum # iterations   MaxIter         ....   125
 SCF integral mode      SCFMode         .... Direct
   Integral package                     .... SHARK and LIBINT hybrid scheme
 Reset frequency        DirectResetFreq ....    20
 Integral Threshold     Thresh          ....  1.000e-12 Eh
 Primitive CutOff       TCut            ....  1.000e-14 Eh

Convergence Tolerance:
 Convergence Check Mode ConvCheckMode   .... Total+1el-Energy
 Convergence forced     ConvForced      .... 0
 Energy Change          TolE            ....  1.000e-09 Eh
 1-El. energy change                    ....  1.000e-06 Eh
 Orbital Gradient       TolG            ....  2.000e-06
 Orbital Rotation angle TolX            ....  2.000e-06
 DIIS Error             TolErr          ....  1.000e-08

------------------------------
INITIAL GUESS: MODEL POTENTIAL
------------------------------
Loading Hartree-Fock densities                     ... done
Calculating cut-offs                               ... done
Initializing the effective Hamiltonian             ... done
Setting up the integral package (SHARK)            ... done
Starting the Coulomb interaction                   ... done (   4.5 sec)
Making the grid                                    ... done (   0.6 sec)
Mapping shells                                     ... done
Starting the XC term evaluation                    ... done (   4.7 sec)
  promolecular density results
     # of electrons  =    137.993179759
     EX              =   -119.597365215
     EC              =     -5.098833947
     EX+EC           =   -124.696199163
Transforming the Hamiltonian                       ... done (   0.2 sec)
Diagonalizing the Hamiltonian                      ... done (   0.4 sec)
Back transforming the eigenvectors                 ... done (   0.1 sec)
Now organizing SCF variables                       ... done
                      ------------------
                      INITIAL GUESS DONE (  10.5 sec)
                      ------------------
             **** ENERGY FILE WAS UPDATED (TPhP_def2qzvp.en.tmp) ****
Finished Guess after  11.0 sec
Maximum memory used throughout the entire GUESS-calculation: 453.4 MB

-------------------------------------------------------------------------------------------
                                      ORCA LEAN-SCF
                              memory conserving SCF solver
-------------------------------------------------------------------------------------------

----------------------------------------D-I-I-S--------------------------------------------
Iteration    Energy (Eh)           Delta-E    RMSDP     MaxDP     DIISErr   Damp  Time(sec)
-------------------------------------------------------------------------------------------
               ***  Starting incremental Fock matrix formation  ***
    1    -1036.2515328751965171     0.00e+00  2.81e-04  2.82e-02  1.29e-01  0.700  48.7
    2    -1036.4429815424782646    -1.91e-01  2.24e-04  2.40e-02  5.87e-02  0.700  42.4
                               ***Turning on AO-DIIS***
    3    -1036.5111278151434817    -6.81e-02  1.18e-04  1.71e-02  1.90e-02  0.700  40.0
    4    -1036.5517678995593087    -4.06e-02  2.40e-04  4.26e-02  1.09e-02  0.000  37.4
    5    -1036.6432339764419339    -9.15e-02  4.59e-05  6.08e-03  4.78e-03  0.000  39.4
                              *** Initializing SOSCF ***
---------------------------------------S-O-S-C-F--------------------------------------
Iteration    Energy (Eh)           Delta-E    RMSDP     MaxDP     MaxGrad    Time(sec)
--------------------------------------------------------------------------------------
    6    -1036.6439967309870553    -7.63e-04  2.05e-05  2.13e-03  9.50e-04    37.0
               *** Restarting incremental Fock matrix formation ***
    7    -1036.6440398201898461    -4.31e-05  1.72e-05  2.65e-03  2.13e-04    57.3
    8    -1036.6440296522177960     1.02e-05  6.46e-06  1.37e-03  6.10e-04    33.2
    9    -1036.6440451098305857    -1.55e-05  8.81e-06  1.58e-03  1.38e-04    31.1
   10    -1036.6440443800079265     7.30e-07  2.33e-06  3.53e-04  1.42e-04    31.9
   11    -1036.6440465713462800    -2.19e-06  2.20e-06  3.93e-04  3.42e-05    30.2
   12    -1036.6440464887618873     8.26e-08  9.72e-07  1.65e-04  3.28e-05    28.9
   13    -1036.6440466780786664    -1.89e-07  4.94e-07  8.19e-05  9.61e-06    28.9
   14    -1036.6440466622630083     1.58e-08  2.31e-07  3.89e-05  2.02e-05    26.7
   15    -1036.6440466838485008    -2.16e-08  1.81e-07  2.27e-05  2.85e-06    26.8
   16    -1036.6440466824537907     1.39e-09  9.56e-08  1.17e-05  3.48e-06    24.9
   17    -1036.6440466863778056    -3.92e-09  5.78e-08  5.19e-06  6.91e-07    24.4
   18    -1036.6440466890062453    -2.63e-09  4.04e-08  4.57e-06  9.02e-07    23.3
   19    -1036.6440466876224491     1.38e-09  5.89e-08  9.87e-06  1.25e-07    22.6
                  *** Gradient check signals convergence ***

               *****************************************************
               *                     SUCCESS                       *
               *           SCF CONVERGED AFTER  19 CYCLES          *
               *****************************************************

             **** ENERGY FILE WAS UPDATED (TPhP_def2qzvp.en.tmp) ****

----------------
TOTAL SCF ENERGY
----------------

Total Energy       :      -1036.64404668579436 Eh          -28208.51860 eV

Components:
Nuclear Repulsion  :       1412.02917650264135 Eh           38423.26729 eV
Electronic Energy  :      -2448.67322318843571 Eh          -66631.78590 eV
One Electron Energy:      -4216.45921764516061 Eh         -114735.68836 eV
Two Electron Energy:       1767.78599445672489 Eh           48103.90246 eV

Virial components:
Potential Energy   :      -2069.45183291592912 Eh          -56312.64725 eV
Kinetic Energy     :       1032.80778623013475 Eh           28104.12865 eV
Virial Ratio       :          2.00371439923944

DFT components:
N(Alpha)           :       68.999996406545 electrons
N(Beta)            :       68.999996406545 electrons
N(Total)           :      137.999992813089 electrons
E(X)               :     -121.529963962870 Eh       
E(C)               :       -5.085126491897 Eh       
E(XC)              :     -126.615090454767 Eh       

---------------
SCF CONVERGENCE
---------------

  Last Energy change         ...   -1.3838e-09  Tolerance :   1.0000e-09
  Last MAX-Density change    ...    9.8671e-06  Tolerance :   1.0000e-08
  Last RMS-Density change    ...    5.8920e-08  Tolerance :   1.0000e-09
  Last DIIS Error            ...    9.4992e-04  Tolerance :   1.0000e-08
  Last Orbital Gradient      ...    1.2496e-07  Tolerance :   2.0000e-06
  Last Orbital Rotation      ...    5.2176e-07  Tolerance :   2.0000e-06


----------------
ORBITAL ENERGIES
----------------

  NO   OCC          E(Eh)            E(eV) 
   0   2.0000     -76.335765     -2077.2018 
   1   2.0000      -9.915572      -269.8164 
   2   2.0000      -9.915569      -269.8164 
   3   2.0000      -9.915560      -269.8161 
   4   2.0000      -9.910525      -269.6791 
   5   2.0000      -9.910516      -269.6789 
   6   2.0000      -9.910491      -269.6782 
   7   2.0000      -9.910213      -269.6706 
   8   2.0000      -9.910196      -269.6702 
   9   2.0000      -9.910162      -269.6692 
  10   2.0000      -9.909752      -269.6581 
  11   2.0000      -9.909742      -269.6578 
  12   2.0000      -9.909715      -269.6570 
  13   2.0000      -9.909466      -269.6503 
  14   2.0000      -9.909450      -269.6498 
  15   2.0000      -9.909418      -269.6490 
  16   2.0000      -9.908662      -269.6284 
  17   2.0000      -9.908643      -269.6279 
  18   2.0000      -9.908610      -269.6270 
  19   2.0000      -6.304438      -171.5525 
  20   2.0000      -4.520002      -122.9955 
  21   2.0000      -4.520001      -122.9955 
  22   2.0000      -4.517246      -122.9205 
  23   2.0000      -0.791496       -21.5377 
  24   2.0000      -0.783653       -21.3243 
  25   2.0000      -0.783624       -21.3235 
  26   2.0000      -0.707652       -19.2562 
  27   2.0000      -0.683487       -18.5986 
  28   2.0000      -0.683477       -18.5983 
  29   2.0000      -0.682131       -18.5617 
  30   2.0000      -0.677695       -18.4410 
  31   2.0000      -0.677683       -18.4407 
  32   2.0000      -0.592536       -16.1237 
  33   2.0000      -0.553435       -15.0597 
  34   2.0000      -0.553414       -15.0592 
  35   2.0000      -0.551772       -15.0145 
  36   2.0000      -0.541583       -14.7372 
  37   2.0000      -0.541578       -14.7371 
  38   2.0000      -0.507869       -13.8198 
  39   2.0000      -0.471981       -12.8433 
  40   2.0000      -0.471960       -12.8427 
  41   2.0000      -0.448316       -12.1993 
  42   2.0000      -0.413646       -11.2559 
  43   2.0000      -0.413627       -11.2554 
  44   2.0000      -0.411785       -11.2052 
  45   2.0000      -0.405003       -11.0207 
  46   2.0000      -0.404998       -11.0206 
  47   2.0000      -0.397885       -10.8270 
  48   2.0000      -0.380668       -10.3585 
  49   2.0000      -0.380033       -10.3412 
  50   2.0000      -0.380013       -10.3407 
  51   2.0000      -0.368428       -10.0254 
  52   2.0000      -0.368392       -10.0245 
  53   2.0000      -0.339750        -9.2451 
  54   2.0000      -0.336721        -9.1626 
  55   2.0000      -0.336684        -9.1616 
  56   2.0000      -0.327350        -8.9076 
  57   2.0000      -0.308100        -8.3838 
  58   2.0000      -0.308080        -8.3833 
  59   2.0000      -0.307387        -8.3644 
  60   2.0000      -0.288856        -7.8602 
  61   2.0000      -0.288838        -7.8597 
  62   2.0000      -0.254165        -6.9162 
  63   2.0000      -0.242489        -6.5985 
  64   2.0000      -0.241728        -6.5778 
  65   2.0000      -0.241678        -6.5764 
  66   2.0000      -0.234749        -6.3878 
  67   2.0000      -0.234741        -6.3876 
  68   2.0000      -0.196766        -5.3543 
  69   0.0000      -0.063535        -1.7289 
  70   0.0000      -0.063486        -1.7275 
  71   0.0000      -0.061780        -1.6811 
  72   0.0000      -0.048255        -1.3131 
  73   0.0000      -0.044792        -1.2189 
  74   0.0000      -0.044744        -1.2176 
  75   0.0000       0.009038         0.2459 
  76   0.0000       0.009100         0.2476 
  77   0.0000       0.009748         0.2653 
  78   0.0000       0.028505         0.7757 
  79   0.0000       0.028538         0.7766 
*Only the first 10 virtual orbitals were printed.

                    ********************************
                    * MULLIKEN POPULATION ANALYSIS *
                    ********************************

-----------------------
MULLIKEN ATOMIC CHARGES
-----------------------
   0 P :   -0.143695
   1 C :    0.151870
   2 C :   -0.049776
   3 C :   -0.096762
   4 C :   -0.155178
   5 H :    0.072758
   6 C :   -0.121210
   7 H :    0.070484
   8 C :   -0.071884
   9 H :    0.087678
  10 H :    0.082847
  11 H :    0.076949
  12 C :    0.151827
  13 C :   -0.096979
  14 C :   -0.049868
  15 C :   -0.121028
  16 H :    0.070570
  17 C :   -0.155279
  18 H :    0.072980
  19 C :   -0.071832
  20 H :    0.082847
  21 H :    0.087736
  22 H :    0.076970
  23 C :    0.152487
  24 C :   -0.050332
  25 C :   -0.096727
  26 C :   -0.155187
  27 H :    0.072968
  28 C :   -0.121358
  29 H :    0.070426
  30 C :   -0.071875
  31 H :    0.087724
  32 H :    0.082884
  33 H :    0.076961
Sum of atomic charges:    0.0000000

--------------------------------
MULLIKEN REDUCED ORBITAL CHARGES
--------------------------------
  0 P s       :     5.879880  s :     5.879880
      pz      :     2.778491  p :     8.997906
      px      :     3.439912
      py      :     2.779502
      dz2     :     0.050707  d :     0.226121
      dxz     :     0.041567
      dyz     :     0.058816
      dx2y2   :     0.038336
      dxy     :     0.036695
      f0      :     0.006294  f :     0.035998
      f+1     :     0.004919
      f-1     :     0.005726
      f+2     :     0.006004
      f-2     :     0.004707
      f+3     :     0.004512
      f-3     :     0.003838
      g0      :     0.000335  g :     0.003789
      g+1     :     0.000435
      g-1     :     0.000402
      g+2     :     0.000416
      g-2     :     0.000763
      g+3     :     0.000418
      g-3     :     0.000358
      g+4     :     0.000288
      g-4     :     0.000375

  1 C s       :     3.332207  s :     3.332207
      pz      :     0.833582  p :     2.364619
      px      :     0.763722
      py      :     0.767315
      dz2     :     0.029619  d :     0.131844
      dxz     :     0.025361
      dyz     :     0.018391
      dx2y2   :     0.028872
      dxy     :     0.029601
      f0      :     0.001184  f :     0.018283
      f+1     :     0.002976
      f-1     :     0.003896
      f+2     :     0.003743
      f-2     :     0.002160
      f+3     :     0.002818
      f-3     :     0.001505
      g0      :     0.000148  g :     0.001177
      g+1     :     0.000068
      g-1     :     0.000086
      g+2     :     0.000111
      g-2     :     0.000133
      g+3     :     0.000177
      g-3     :     0.000163
      g+4     :     0.000174
      g-4     :     0.000117

  2 C s       :     3.361248  s :     3.361248
      pz      :     0.839015  p :     2.554638
      px      :     0.835519
      py      :     0.880104
      dz2     :     0.026022  d :     0.116661
      dxz     :     0.025365
      dyz     :     0.024499
      dx2y2   :     0.028087
      dxy     :     0.012688
      f0      :     0.002147  f :     0.016213
      f+1     :     0.002619
      f-1     :     0.002434
      f+2     :     0.003502
      f-2     :     0.001520
      f+3     :     0.002823
      f-3     :     0.001168
      g0      :     0.000128  g :     0.001015
      g+1     :     0.000123
      g-1     :     0.000069
      g+2     :     0.000128
      g-2     :     0.000151
      g+3     :     0.000132
      g-3     :     0.000116
      g+4     :     0.000087
      g-4     :     0.000080

  3 C s       :     3.370308  s :     3.370308
      pz      :     0.847610  p :     2.596820
      px      :     0.902987
      py      :     0.846224
      dz2     :     0.028070  d :     0.113103
      dxz     :     0.015546
      dyz     :     0.027069
      dx2y2   :     0.019496
      dxy     :     0.022922
      f0      :     0.002023  f :     0.015515
      f+1     :     0.001562
      f-1     :     0.003448
      f+2     :     0.003017
      f-2     :     0.001869
      f+3     :     0.001932
      f-3     :     0.001665
      g0      :     0.000116  g :     0.001015
      g+1     :     0.000097
      g-1     :     0.000101
      g+2     :     0.000171
      g-2     :     0.000124
      g+3     :     0.000134
      g-3     :     0.000140
      g+4     :     0.000087
      g-4     :     0.000044

  4 C s       :     3.340337  s :     3.340337
      pz      :     0.880821  p :     2.669526
      px      :     0.901828
      py      :     0.886876
      dz2     :     0.028334  d :     0.129424
      dxz     :     0.015764
      dyz     :     0.034251
      dx2y2   :     0.024274
      dxy     :     0.026800
      f0      :     0.001904  f :     0.014844
      f+1     :     0.001475
      f-1     :     0.003145
      f+2     :     0.002882
      f-2     :     0.001667
      f+3     :     0.001812
      f-3     :     0.001959
      g0      :     0.000122  g :     0.001048
      g+1     :     0.000103
      g-1     :     0.000101
      g+2     :     0.000169
      g-2     :     0.000135
      g+3     :     0.000133
      g-3     :     0.000137
      g+4     :     0.000096
      g-4     :     0.000052

  5 H s       :     0.879414  s :     0.879414
      pz      :     0.015287  p :     0.041934
      px      :     0.014588
      py      :     0.012059
      dz2     :     0.001341  d :     0.005579
      dxz     :     0.000649
      dyz     :     0.000919
      dx2y2   :     0.001069
      dxy     :     0.001600
      f0      :     0.000006  f :     0.000316
      f+1     :     0.000017
      f-1     :     0.000100
      f+2     :     0.000033
      f-2     :     0.000046
      f+3     :     0.000044
      f-3     :     0.000070

  6 C s       :     3.324594  s :     3.324594
      pz      :     0.883893  p :     2.652687
      px      :     0.870347
      py      :     0.898447
      dz2     :     0.023457  d :     0.128269
      dxz     :     0.029761
      dyz     :     0.024732
      dx2y2   :     0.035410
      dxy     :     0.014909
      f0      :     0.002068  f :     0.014618
      f+1     :     0.002085
      f-1     :     0.002132
      f+2     :     0.002970
      f-2     :     0.001432
      f+3     :     0.002774
      f-3     :     0.001158
      g0      :     0.000124  g :     0.001042
      g+1     :     0.000125
      g-1     :     0.000076
      g+2     :     0.000129
      g-2     :     0.000157
      g+3     :     0.000131
      g-3     :     0.000121
      g+4     :     0.000092
      g-4     :     0.000088

  7 H s       :     0.888915  s :     0.888915
      pz      :     0.013917  p :     0.035090
      px      :     0.009934
      py      :     0.011240
      dz2     :     0.000886  d :     0.005205
      dxz     :     0.001108
      dyz     :     0.000662
      dx2y2   :     0.001689
      dxy     :     0.000860
      f0      :     0.000010  f :     0.000306
      f+1     :     0.000070
      f-1     :     0.000027
      f+2     :     0.000037
      f-2     :     0.000039
      f+3     :     0.000099
      f-3     :     0.000024

  8 C s       :     3.316116  s :     3.316116
      pz      :     0.885379  p :     2.615333
      px      :     0.867367
      py      :     0.862586
      dz2     :     0.026216  d :     0.124675
      dxz     :     0.021693
      dyz     :     0.017359
      dx2y2   :     0.026587
      dxy     :     0.032820
      f0      :     0.000435  f :     0.014734
      f+1     :     0.002096
      f-1     :     0.003203
      f+2     :     0.002671
      f-2     :     0.001526
      f+3     :     0.003146
      f-3     :     0.001655
      g0      :     0.000107  g :     0.001026
      g+1     :     0.000046
      g-1     :     0.000073
      g+2     :     0.000088
      g-2     :     0.000131
      g+3     :     0.000151
      g-3     :     0.000141
      g+4     :     0.000170
      g-4     :     0.000119

  9 H s       :     0.874482  s :     0.874482
      pz      :     0.012636  p :     0.032776
      px      :     0.007947
      py      :     0.012193
      dz2     :     0.000822  d :     0.004775
      dxz     :     0.001025
      dyz     :     0.000622
      dx2y2   :     0.001584
      dxy     :     0.000722
      f0      :     0.000008  f :     0.000290
      f+1     :     0.000067
      f-1     :     0.000025
      f+2     :     0.000038
      f-2     :     0.000039
      f+3     :     0.000092
      f-3     :     0.000020

 10 H s       :     0.878034  s :     0.878034
      pz      :     0.012758  p :     0.033961
      px      :     0.013681
      py      :     0.007522
      dz2     :     0.001100  d :     0.004866
      dxz     :     0.000563
      dyz     :     0.000920
      dx2y2   :     0.001052
      dxy     :     0.001230
      f0      :     0.000005  f :     0.000292
      f+1     :     0.000014
      f-1     :     0.000094
      f+2     :     0.000032
      f-2     :     0.000045
      f+3     :     0.000032
      f-3     :     0.000071

 11 H s       :     0.883479  s :     0.883479
      pz      :     0.009669  p :     0.034356
      px      :     0.011963
      py      :     0.012723
      dz2     :     0.001642  d :     0.004920
      dxz     :     0.000772
      dyz     :     0.001103
      dx2y2   :     0.000807
      dxy     :     0.000596
      f0      :     0.000094  f :     0.000297
      f+1     :     0.000028
      f-1     :     0.000035
      f+2     :     0.000072
      f-2     :     0.000041
      f+3     :     0.000016
      f-3     :     0.000012

 12 C s       :     3.332293  s :     3.332293
      pz      :     0.745866  p :     2.364672
      px      :     0.745185
      py      :     0.873622
      dz2     :     0.017250  d :     0.131745
      dxz     :     0.042018
      dyz     :     0.032427
      dx2y2   :     0.025873
      dxy     :     0.014177
      f0      :     0.005129  f :     0.018285
      f+1     :     0.001149
      f-1     :     0.003128
      f+2     :     0.001865
      f-2     :     0.003167
      f+3     :     0.002971
      f-3     :     0.000876
      g0      :     0.000176  g :     0.001177
      g+1     :     0.000193
      g-1     :     0.000127
      g+2     :     0.000141
      g-2     :     0.000148
      g+3     :     0.000038
      g-3     :     0.000125
      g+4     :     0.000127
      g-4     :     0.000102

 13 C s       :     3.370320  s :     3.370320
      pz      :     0.810488  p :     2.597038
      px      :     0.901051
      py      :     0.885499
      dz2     :     0.039598  d :     0.113093
      dxz     :     0.018149
      dyz     :     0.025874
      dx2y2   :     0.012134
      dxy     :     0.017339
      f0      :     0.004225  f :     0.015512
      f+1     :     0.001897
      f-1     :     0.003012
      f+2     :     0.002849
      f-2     :     0.002402
      f+3     :     0.000630
      f-3     :     0.000498
      g0      :     0.000175  g :     0.001015
      g+1     :     0.000163
      g-1     :     0.000159
      g+2     :     0.000159
      g-2     :     0.000155
      g+3     :     0.000081
      g-3     :     0.000095
      g+4     :     0.000014
      g-4     :     0.000015

 14 C s       :     3.361564  s :     3.361564
      pz      :     0.854207  p :     2.554440
      px      :     0.829618
      py      :     0.870615
      dz2     :     0.028482  d :     0.116635
      dxz     :     0.036172
      dyz     :     0.014511
      dx2y2   :     0.024622
      dxy     :     0.012848
      f0      :     0.004517  f :     0.016214
      f+1     :     0.001573
      f-1     :     0.001647
      f+2     :     0.002376
      f-2     :     0.002861
      f+3     :     0.002491
      f-3     :     0.000749
      g0      :     0.000082  g :     0.001015
      g+1     :     0.000105
      g-1     :     0.000122
      g+2     :     0.000114
      g-2     :     0.000127
      g+3     :     0.000072
      g-3     :     0.000148
      g+4     :     0.000138
      g-4     :     0.000107

 15 C s       :     3.324577  s :     3.324577
      pz      :     0.884572  p :     2.652529
      px      :     0.864928
      py      :     0.903030
      dz2     :     0.034512  d :     0.128259
      dxz     :     0.038580
      dyz     :     0.012247
      dx2y2   :     0.024411
      dxy     :     0.018509
      f0      :     0.003838  f :     0.014620
      f+1     :     0.001559
      f-1     :     0.001436
      f+2     :     0.002316
      f-2     :     0.002393
      f+3     :     0.002369
      f-3     :     0.000710
      g0      :     0.000099  g :     0.001042
      g+1     :     0.000119
      g-1     :     0.000120
      g+2     :     0.000114
      g-2     :     0.000134
      g+3     :     0.000075
      g-3     :     0.000145
      g+4     :     0.000135
      g-4     :     0.000103

 16 H s       :     0.888851  s :     0.888851
      pz      :     0.013969  p :     0.035069
      px      :     0.008698
      py      :     0.012402
      dz2     :     0.000286  d :     0.005204
      dxz     :     0.001779
      dyz     :     0.000674
      dx2y2   :     0.001820
      dxy     :     0.000645
      f0      :     0.000045  f :     0.000306
      f+1     :     0.000022
      f-1     :     0.000012
      f+2     :     0.000026
      f-2     :     0.000063
      f+3     :     0.000128
      f-3     :     0.000009

 17 C s       :     3.340199  s :     3.340199
      pz      :     0.849585  p :     2.669761
      px      :     0.896017
      py      :     0.924159
      dz2     :     0.051225  d :     0.129426
      dxz     :     0.021108
      dyz     :     0.026375
      dx2y2   :     0.012658
      dxy     :     0.018061
      f0      :     0.004191  f :     0.014846
      f+1     :     0.001530
      f-1     :     0.002553
      f+2     :     0.002795
      f-2     :     0.002459
      f+3     :     0.000641
      f-3     :     0.000677
      g0      :     0.000179  g :     0.001048
      g+1     :     0.000166
      g-1     :     0.000158
      g+2     :     0.000158
      g-2     :     0.000171
      g+3     :     0.000082
      g-3     :     0.000100
      g+4     :     0.000015
      g-4     :     0.000018

 18 H s       :     0.879221  s :     0.879221
      pz      :     0.012030  p :     0.041907
      px      :     0.013502
      py      :     0.016376
      dz2     :     0.001176  d :     0.005575
      dxz     :     0.001376
      dyz     :     0.002018
      dx2y2   :     0.000482
      dxy     :     0.000523
      f0      :     0.000095  f :     0.000316
      f+1     :     0.000026
      f-1     :     0.000081
      f+2     :     0.000041
      f-2     :     0.000061
      f+3     :     0.000007
      f-3     :     0.000005

 19 C s       :     3.316150  s :     3.316150
      pz      :     0.843543  p :     2.615294
      px      :     0.860020
      py      :     0.911731
      dz2     :     0.016682  d :     0.124629
      dxz     :     0.042657
      dyz     :     0.032565
      dx2y2   :     0.020961
      dxy     :     0.011764
      f0      :     0.004113  f :     0.014733
      f+1     :     0.001280
      f-1     :     0.002379
      f+2     :     0.001434
      f-2     :     0.002655
      f+3     :     0.002347
      f-3     :     0.000524
      g0      :     0.000171  g :     0.001026
      g+1     :     0.000167
      g-1     :     0.000101
      g+2     :     0.000093
      g-2     :     0.000139
      g+3     :     0.000025
      g-3     :     0.000097
      g+4     :     0.000129
      g-4     :     0.000103

 20 H s       :     0.878035  s :     0.878035
      pz      :     0.005707  p :     0.033960
      px      :     0.012637
      py      :     0.015615
      dz2     :     0.001177  d :     0.004866
      dxz     :     0.000996
      dyz     :     0.001806
      dx2y2   :     0.000406
      dxy     :     0.000481
      f0      :     0.000093  f :     0.000292
      f+1     :     0.000019
      f-1     :     0.000080
      f+2     :     0.000033
      f-2     :     0.000056
      f+3     :     0.000006
      f-3     :     0.000005

 21 H s       :     0.874426  s :     0.874426
      pz      :     0.012612  p :     0.032774
      px      :     0.006912
      py      :     0.013250
      dz2     :     0.000240  d :     0.004775
      dxz     :     0.001534
      dyz     :     0.000642
      dx2y2   :     0.001707
      dxy     :     0.000652
      f0      :     0.000040  f :     0.000290
      f+1     :     0.000022
      f-1     :     0.000012
      f+2     :     0.000021
      f-2     :     0.000062
      f+3     :     0.000124
      f-3     :     0.000009

 22 H s       :     0.883461  s :     0.883461
      pz      :     0.007844  p :     0.034352
      px      :     0.012163
      py      :     0.014344
      dz2     :     0.001687  d :     0.004919
      dxz     :     0.000895
      dyz     :     0.000741
      dx2y2   :     0.000958
      dxy     :     0.000639
      f0      :     0.000078  f :     0.000297
      f+1     :     0.000037
      f-1     :     0.000034
      f+2     :     0.000080
      f-2     :     0.000026
      f+3     :     0.000020
      f-3     :     0.000021

 23 C s       :     3.332034  s :     3.332034
      pz      :     0.825024  p :     2.364153
      px      :     0.776342
      py      :     0.762787
      dz2     :     0.032258  d :     0.131865
      dxz     :     0.014605
      dyz     :     0.022383
      dx2y2   :     0.028458
      dxy     :     0.034162
      f0      :     0.001015  f :     0.018284
      f+1     :     0.002260
      f-1     :     0.002692
      f+2     :     0.002658
      f-2     :     0.002722
      f+3     :     0.002397
      f-3     :     0.004539
      g0      :     0.000090  g :     0.001177
      g+1     :     0.000135
      g-1     :     0.000089
      g+2     :     0.000132
      g-2     :     0.000107
      g+3     :     0.000174
      g-3     :     0.000186
      g+4     :     0.000164
      g-4     :     0.000100

 24 C s       :     3.361468  s :     3.361468
      pz      :     0.881441  p :     2.554897
      px      :     0.849560
      py      :     0.823897
      dz2     :     0.015923  d :     0.116735
      dxz     :     0.003565
      dyz     :     0.039373
      dx2y2   :     0.020223
      dxy     :     0.037650
      f0      :     0.001727  f :     0.016217
      f+1     :     0.001817
      f-1     :     0.000978
      f+2     :     0.002395
      f-2     :     0.002745
      f+3     :     0.002464
      f-3     :     0.004090
      g0      :     0.000056  g :     0.001015
      g+1     :     0.000142
      g-1     :     0.000088
      g+2     :     0.000101
      g-2     :     0.000083
      g+3     :     0.000130
      g-3     :     0.000121
      g+4     :     0.000192
      g-4     :     0.000103

 25 C s       :     3.370353  s :     3.370353
      pz      :     0.877297  p :     2.596772
      px      :     0.915385
      py      :     0.804089
      dz2     :     0.012901  d :     0.113074
      dxz     :     0.016110
      dyz     :     0.026403
      dx2y2   :     0.034429
      dxy     :     0.023230
      f0      :     0.001114  f :     0.015514
      f+1     :     0.000709
      f-1     :     0.002589
      f+2     :     0.001896
      f-2     :     0.002553
      f+3     :     0.001615
      f-3     :     0.005038
      g0      :     0.000076  g :     0.001015
      g+1     :     0.000041
      g-1     :     0.000142
      g+2     :     0.000073
      g-2     :     0.000099
      g+3     :     0.000112
      g-3     :     0.000122
      g+4     :     0.000225
      g-4     :     0.000123

 26 C s       :     3.340275  s :     3.340275
      pz      :     0.924602  p :     2.669609
      px      :     0.901391
      py      :     0.843616
      dz2     :     0.013271  d :     0.129410
      dxz     :     0.018676
      dyz     :     0.029865
      dx2y2   :     0.043016
      dxy     :     0.024581
      f0      :     0.001173  f :     0.014846
      f+1     :     0.000929
      f-1     :     0.002367
      f+2     :     0.002081
      f-2     :     0.002397
      f+3     :     0.001373
      f-3     :     0.004525
      g0      :     0.000074  g :     0.001048
      g+1     :     0.000040
      g-1     :     0.000145
      g+2     :     0.000079
      g-2     :     0.000113
      g+3     :     0.000119
      g-3     :     0.000136
      g+4     :     0.000216
      g-4     :     0.000127

 27 H s       :     0.879240  s :     0.879240
      pz      :     0.014651  p :     0.041900
      px      :     0.013750
      py      :     0.013499
      dz2     :     0.001403  d :     0.005576
      dxz     :     0.000828
      dyz     :     0.000688
      dx2y2   :     0.001588
      dxy     :     0.001068
      f0      :     0.000008  f :     0.000316
      f+1     :     0.000034
      f-1     :     0.000086
      f+2     :     0.000054
      f-2     :     0.000036
      f+3     :     0.000025
      f-3     :     0.000073

 28 C s       :     3.324610  s :     3.324610
      pz      :     0.903772  p :     2.652834
      px      :     0.878173
      py      :     0.870889
      dz2     :     0.014797  d :     0.128253
      dxz     :     0.008147
      dyz     :     0.042075
      dx2y2   :     0.021565
      dxy     :     0.041668
      f0      :     0.001723  f :     0.014618
      f+1     :     0.001851
      f-1     :     0.000839
      f+2     :     0.002044
      f-2     :     0.002592
      f+3     :     0.001913
      f-3     :     0.003656
      g0      :     0.000053  g :     0.001042
      g+1     :     0.000140
      g-1     :     0.000090
      g+2     :     0.000107
      g-2     :     0.000084
      g+3     :     0.000141
      g-3     :     0.000125
      g+4     :     0.000190
      g-4     :     0.000111

 29 H s       :     0.888965  s :     0.888965
      pz      :     0.010091  p :     0.035097
      px      :     0.010659
      py      :     0.014348
      dz2     :     0.001637  d :     0.005206
      dxz     :     0.000362
      dyz     :     0.000929
      dx2y2   :     0.000870
      dxy     :     0.001407
      f0      :     0.000026  f :     0.000306
      f+1     :     0.000095
      f-1     :     0.000012
      f+2     :     0.000028
      f-2     :     0.000067
      f+3     :     0.000035
      f-3     :     0.000043

 30 C s       :     3.316113  s :     3.316113
      pz      :     0.894601  p :     2.615373
      px      :     0.871696
      py      :     0.849075
      dz2     :     0.030699  d :     0.124628
      dxz     :     0.015717
      dyz     :     0.016857
      dx2y2   :     0.031236
      dxy     :     0.030119
      f0      :     0.000853  f :     0.014734
      f+1     :     0.002007
      f-1     :     0.002298
      f+2     :     0.001876
      f-2     :     0.002615
      f+3     :     0.001642
      f-3     :     0.003444
      g0      :     0.000061  g :     0.001026
      g+1     :     0.000129
      g-1     :     0.000060
      g+2     :     0.000123
      g-2     :     0.000130
      g+3     :     0.000161
      g-3     :     0.000200
      g+4     :     0.000096
      g-4     :     0.000067

 31 H s       :     0.874437  s :     0.874437
      pz      :     0.012184  p :     0.032774
      px      :     0.008621
      py      :     0.011969
      dz2     :     0.001564  d :     0.004775
      dxz     :     0.000345
      dyz     :     0.000865
      dx2y2   :     0.000764
      dxy     :     0.001238
      f0      :     0.000028  f :     0.000290
      f+1     :     0.000089
      f-1     :     0.000013
      f+2     :     0.000023
      f-2     :     0.000067
      f+3     :     0.000033
      f-3     :     0.000038

 32 H s       :     0.877998  s :     0.877998
      pz      :     0.012596  p :     0.033959
      px      :     0.013458
      py      :     0.007906
      dz2     :     0.001318  d :     0.004866
      dxz     :     0.000627
      dyz     :     0.000659
      dx2y2   :     0.001355
      dxy     :     0.000907
      f0      :     0.000006  f :     0.000292
      f+1     :     0.000031
      f-1     :     0.000085
      f+2     :     0.000053
      f-2     :     0.000024
      f+3     :     0.000026
      f-3     :     0.000068

 33 H s       :     0.883467  s :     0.883467
      pz      :     0.015379  p :     0.034355
      px      :     0.013142
      py      :     0.005833
      dz2     :     0.000181  d :     0.004920
      dxz     :     0.000345
      dyz     :     0.001911
      dx2y2   :     0.001154
      dxy     :     0.001330
      f0      :     0.000044  f :     0.000297
      f+1     :     0.000011
      f-1     :     0.000015
      f+2     :     0.000052
      f-2     :     0.000039
      f+3     :     0.000037
      f-3     :     0.000099



                     *******************************
                     * LOEWDIN POPULATION ANALYSIS *
                     *******************************

----------------------
LOEWDIN ATOMIC CHARGES
----------------------
   0 P :    0.640955
   1 C :   -0.224714
   2 C :    0.054427
   3 C :    0.042838
   4 C :    0.061234
   5 H :   -0.049303
   6 C :    0.060662
   7 H :   -0.051364
   8 C :    0.060999
   9 H :   -0.056027
  10 H :   -0.055824
  11 H :   -0.056643
  12 C :   -0.224745
  13 C :    0.042813
  14 C :    0.054472
  15 C :    0.060706
  16 H :   -0.051408
  17 C :    0.061258
  18 H :   -0.049258
  19 C :    0.061045
  20 H :   -0.055823
  21 H :   -0.056027
  22 H :   -0.056625
  23 C :   -0.224766
  24 C :    0.054512
  25 C :    0.042794
  26 C :    0.061265
  27 H :   -0.049291
  28 C :    0.060665
  29 H :   -0.051375
  30 C :    0.061026
  31 H :   -0.056024
  32 H :   -0.055823
  33 H :   -0.056633

-------------------------------
LOEWDIN REDUCED ORBITAL CHARGES
-------------------------------
  0 P s       :     4.843437  s :     4.843437
      pz      :     2.705633  p :     8.576070
      px      :     3.164112
      py      :     2.706324
      dz2     :     0.151862  d :     0.668768
      dxz     :     0.118809
      dyz     :     0.164970
      dx2y2   :     0.127175
      dxy     :     0.105951
      f0      :     0.037596  f :     0.247517
      f+1     :     0.033980
      f-1     :     0.039814
      f+2     :     0.037583
      f-2     :     0.043365
      f+3     :     0.027431
      f-3     :     0.027748
      g0      :     0.001900  g :     0.023253
      g+1     :     0.002848
      g-1     :     0.002591
      g+2     :     0.002738
      g-2     :     0.003334
      g+3     :     0.002977
      g-3     :     0.002646
      g+4     :     0.002466
      g-4     :     0.001752

  1 C s       :     2.617936  s :     2.617936
      pz      :     0.926897  p :     2.832271
      px      :     0.956410
      py      :     0.948964
      dz2     :     0.111827  d :     0.629098
      dxz     :     0.137757
      dyz     :     0.115567
      dx2y2   :     0.134856
      dxy     :     0.129091
      f0      :     0.012003  f :     0.133690
      f+1     :     0.019112
      f-1     :     0.024320
      f+2     :     0.025316
      f-2     :     0.014240
      f+3     :     0.022889
      f-3     :     0.015811
      g0      :     0.001243  g :     0.011719
      g+1     :     0.000774
      g-1     :     0.000870
      g+2     :     0.001270
      g-2     :     0.001352
      g+3     :     0.001687
      g-3     :     0.001624
      g+4     :     0.001684
      g-4     :     0.001215

  2 C s       :     2.590287  s :     2.590287
      pz      :     0.910897  p :     2.715456
      px      :     0.907334
      py      :     0.897224
      dz2     :     0.100304  d :     0.514410
      dxz     :     0.120150
      dyz     :     0.101451
      dx2y2   :     0.101074
      dxy     :     0.091431
      f0      :     0.015926  f :     0.113999
      f+1     :     0.017956
      f-1     :     0.015744
      f+2     :     0.021554
      f-2     :     0.012670
      f+3     :     0.019681
      f-3     :     0.010468
      g0      :     0.001092  g :     0.011423
      g+1     :     0.001270
      g-1     :     0.001060
      g+2     :     0.001658
      g-2     :     0.001630
      g+3     :     0.001552
      g-3     :     0.001145
      g+4     :     0.000952
      g-4     :     0.001062

  3 C s       :     2.591625  s :     2.591625
      pz      :     0.913390  p :     2.720813
      px      :     0.886371
      py      :     0.921052
      dz2     :     0.109921  d :     0.519037
      dxz     :     0.089966
      dyz     :     0.127844
      dx2y2   :     0.084422
      dxy     :     0.106885
      f0      :     0.014412  f :     0.114259
      f+1     :     0.012914
      f-1     :     0.023065
      f+2     :     0.023016
      f-2     :     0.012401
      f+3     :     0.013178
      f-3     :     0.015273
      g0      :     0.000972  g :     0.011428
      g+1     :     0.001286
      g-1     :     0.001185
      g+2     :     0.002166
      g-2     :     0.001222
      g+3     :     0.001364
      g-3     :     0.001506
      g+4     :     0.000892
      g-4     :     0.000834

  4 C s       :     2.596259  s :     2.596259
      pz      :     0.913035  p :     2.717320
      px      :     0.881978
      py      :     0.922307
      dz2     :     0.107620  d :     0.503108
      dxz     :     0.086402
      dyz     :     0.122024
      dx2y2   :     0.082487
      dxy     :     0.104575
      f0      :     0.014336  f :     0.110758
      f+1     :     0.012619
      f-1     :     0.022199
      f+2     :     0.021850
      f-2     :     0.011798
      f+3     :     0.013156
      f-3     :     0.014800
      g0      :     0.000991  g :     0.011322
      g+1     :     0.001287
      g-1     :     0.001139
      g+2     :     0.002119
      g-2     :     0.001177
      g+3     :     0.001357
      g-3     :     0.001446
      g+4     :     0.000950
      g-4     :     0.000856

  5 H s       :     0.778316  s :     0.778316
      pz      :     0.061479  p :     0.196945
      px      :     0.052230
      py      :     0.083236
      dz2     :     0.011815  d :     0.064822
      dxz     :     0.006323
      dyz     :     0.015828
      dx2y2   :     0.014353
      dxy     :     0.016503
      f0      :     0.000608  f :     0.009220
      f+1     :     0.000352
      f-1     :     0.002239
      f+2     :     0.001451
      f-2     :     0.001370
      f+3     :     0.001500
      f-3     :     0.001701

  6 C s       :     2.596180  s :     2.596180
      pz      :     0.909326  p :     2.718496
      px      :     0.912830
      py      :     0.896340
      dz2     :     0.097574  d :     0.502364
      dxz     :     0.113902
      dyz     :     0.099676
      dx2y2   :     0.101101
      dxy     :     0.090112
      f0      :     0.015628  f :     0.110941
      f+1     :     0.017293
      f-1     :     0.015089
      f+2     :     0.021104
      f-2     :     0.011990
[...]
      dxy     :     0.139422
      f0      :     0.014506  f :     0.113999
      f+1     :     0.012533
      f-1     :     0.008703
      f+2     :     0.014784
      f-2     :     0.020207
      f+3     :     0.017702
      f-3     :     0.025563
      g0      :     0.000812  g :     0.011423
      g+1     :     0.001294
      g-1     :     0.001038
      g+2     :     0.001091
      g-2     :     0.000935
      g+3     :     0.001871
      g-3     :     0.001306
      g+4     :     0.001810
      g-4     :     0.001267

 25 C s       :     2.591625  s :     2.591625
      pz      :     0.842583  p :     2.720816
      px      :     0.875188
      py      :     1.003045
      dz2     :     0.056359  d :     0.519073
      dxz     :     0.070783
      dyz     :     0.119111
      dx2y2   :     0.148632
      dxy     :     0.124187
      f0      :     0.011331  f :     0.114264
      f+1     :     0.005212
      f-1     :     0.018670
      f+2     :     0.015320
      f-2     :     0.016847
      f+3     :     0.015398
      f-3     :     0.031485
      g0      :     0.001041  g :     0.011429
      g+1     :     0.000452
      g-1     :     0.001464
      g+2     :     0.000752
      g-2     :     0.001238
      g+3     :     0.001491
      g-3     :     0.001463
      g+4     :     0.002153
      g-4     :     0.001375

 26 C s       :     2.596258  s :     2.596258
      pz      :     0.851475  p :     2.717313
      px      :     0.873040
      py      :     0.992798
      dz2     :     0.054705  d :     0.503087
      dxz     :     0.069858
      dyz     :     0.119824
      dx2y2   :     0.139223
      dxy     :     0.119476
      f0      :     0.011244  f :     0.110756
      f+1     :     0.005311
      f-1     :     0.018215
      f+2     :     0.015022
      f-2     :     0.016520
      f+3     :     0.014498
      f-3     :     0.029946
      g0      :     0.001001  g :     0.011322
      g+1     :     0.000461
      g-1     :     0.001445
      g+2     :     0.000765
      g-2     :     0.001235
      g+3     :     0.001494
      g-3     :     0.001505
      g+4     :     0.002103
      g-4     :     0.001312

 27 H s       :     0.778334  s :     0.778334
      pz      :     0.061423  p :     0.196924
      px      :     0.056123
      py      :     0.079378
      dz2     :     0.012693  d :     0.064813
      dxz     :     0.008871
      dyz     :     0.013427
      dx2y2   :     0.016232
      dxy     :     0.013591
      f0      :     0.000593  f :     0.009220
      f+1     :     0.000639
      f-1     :     0.001886
      f+2     :     0.001627
      f-2     :     0.001600
      f+3     :     0.001161
      f-3     :     0.001713

 28 C s       :     2.596176  s :     2.596176
      pz      :     0.856916  p :     2.718508
      px      :     0.897430
      py      :     0.964161
      dz2     :     0.063006  d :     0.502353
      dxz     :     0.068944
      dyz     :     0.118977
      dx2y2   :     0.115505
      dxy     :     0.135921
      f0      :     0.014330  f :     0.110941
      f+1     :     0.012377
      f-1     :     0.008116
      f+2     :     0.014331
      f-2     :     0.019232
      f+3     :     0.017381
      f-3     :     0.025173
      g0      :     0.000792  g :     0.011357
      g+1     :     0.001283
      g-1     :     0.001043
      g+2     :     0.001107
      g-2     :     0.000883
      g+3     :     0.001886
      g-3     :     0.001278
      g+4     :     0.001836
      g-4     :     0.001250

 29 H s       :     0.789880  s :     0.789880
      pz      :     0.067311  p :     0.188533
      px      :     0.075845
      py      :     0.045377
      dz2     :     0.014580  d :     0.063807
      dxz     :     0.014390
      dyz     :     0.009165
      dx2y2   :     0.011245
      dxy     :     0.014427
      f0      :     0.000784  f :     0.009155
      f+1     :     0.002285
      f-1     :     0.000278
      f+2     :     0.001631
      f-2     :     0.001978
      f+3     :     0.001024
      f-3     :     0.001176

 30 C s       :     2.596507  s :     2.596507
      pz      :     0.870230  p :     2.717286
      px      :     0.897693
      py      :     0.949362
      dz2     :     0.100274  d :     0.502826
      dxz     :     0.083710
      dyz     :     0.082688
      dx2y2   :     0.120994
      dxy     :     0.115160
      f0      :     0.008218  f :     0.111032
      f+1     :     0.012912
      f-1     :     0.016899
      f+2     :     0.015946
      f-2     :     0.020726
      f+3     :     0.014537
      f-3     :     0.021794
      g0      :     0.000996  g :     0.011324
      g+1     :     0.001206
      g-1     :     0.000711
      g+2     :     0.001082
      g-2     :     0.001367
      g+3     :     0.001660
      g-3     :     0.002303
      g+4     :     0.000799
      g-4     :     0.001199

 31 H s       :     0.795529  s :     0.795529
      pz      :     0.067421  p :     0.188127
      px      :     0.075586
      py      :     0.045120
      dz2     :     0.014659  d :     0.063195
      dxz     :     0.014009
      dyz     :     0.009549
      dx2y2   :     0.010874
      dxy     :     0.014104
      f0      :     0.000835  f :     0.009173
      f+1     :     0.002265
      f-1     :     0.000313
      f+2     :     0.001637
      f-2     :     0.002028
      f+3     :     0.000979
      f-3     :     0.001116

 32 H s       :     0.795514  s :     0.795514
      pz      :     0.061459  p :     0.187974
      px      :     0.055793
      py      :     0.070721
      dz2     :     0.012408  d :     0.063157
      dxz     :     0.008695
      dyz     :     0.013115
      dx2y2   :     0.016124
      dxy     :     0.012816
      f0      :     0.000578  f :     0.009177
      f+1     :     0.000626
      f-1     :     0.001874
      f+2     :     0.001634
      f-2     :     0.001571
      f+3     :     0.001159
      f-3     :     0.001734

 33 H s       :     0.796302  s :     0.796302
      pz      :     0.049436  p :     0.188073
      px      :     0.053332
      py      :     0.085305
      dz2     :     0.005275  d :     0.063085
      dxz     :     0.003259
      dyz     :     0.018587
      dx2y2   :     0.017673
      dxy     :     0.018290
      f0      :     0.001094  f :     0.009173
      f+1     :     0.000291
      f-1     :     0.001077
      f+2     :     0.001092
      f-2     :     0.000924
      f+3     :     0.002000
      f-3     :     0.002695



                      *****************************
                      * MAYER POPULATION ANALYSIS *
                      *****************************

  NA   - Mulliken gross atomic population
  ZA   - Total nuclear charge
  QA   - Mulliken gross atomic charge
  VA   - Mayer's total valence
  BVA  - Mayer's bonded valence
  FA   - Mayer's free valence

  ATOM       NA         ZA         QA         VA         BVA        FA
  0 P     15.1437    15.0000    -0.1437     3.0965     3.0965    -0.0000
  1 C      5.8481     6.0000     0.1519     3.5652     3.5652     0.0000
  2 C      6.0498     6.0000    -0.0498     3.6643     3.6643     0.0000
  3 C      6.0968     6.0000    -0.0968     3.7329     3.7329    -0.0000
  4 C      6.1552     6.0000    -0.1552     3.8666     3.8666     0.0000
  5 H      0.9272     1.0000     0.0728     1.0174     1.0174    -0.0000
  6 C      6.1212     6.0000    -0.1212     3.8554     3.8554    -0.0000
  7 H      0.9295     1.0000     0.0705     1.0096     1.0096    -0.0000
  8 C      6.0719     6.0000    -0.0719     3.8520     3.8520     0.0000
  9 H      0.9123     1.0000     0.0877     0.9960     0.9960     0.0000
 10 H      0.9172     1.0000     0.0828     0.9985     0.9985    -0.0000
 11 H      0.9231     1.0000     0.0769     0.9994     0.9994    -0.0000
 12 C      5.8482     6.0000     0.1518     3.5652     3.5652     0.0000
 13 C      6.0970     6.0000    -0.0970     3.7332     3.7332    -0.0000
 14 C      6.0499     6.0000    -0.0499     3.6639     3.6639     0.0000
 15 C      6.1210     6.0000    -0.1210     3.8553     3.8553    -0.0000
 16 H      0.9294     1.0000     0.0706     1.0096     1.0096     0.0000
 17 C      6.1553     6.0000    -0.1553     3.8669     3.8669     0.0000
 18 H      0.9270     1.0000     0.0730     1.0172     1.0172     0.0000
 19 C      6.0718     6.0000    -0.0718     3.8519     3.8519     0.0000
 20 H      0.9172     1.0000     0.0828     0.9985     0.9985     0.0000
 21 H      0.9123     1.0000     0.0877     0.9960     0.9960     0.0000
 22 H      0.9230     1.0000     0.0770     0.9994     0.9994     0.0000
 23 C      5.8475     6.0000     0.1525     3.5645     3.5645     0.0000
 24 C      6.0503     6.0000    -0.0503     3.6649     3.6649    -0.0000
 25 C      6.0967     6.0000    -0.0967     3.7328     3.7328    -0.0000
 26 C      6.1552     6.0000    -0.1552     3.8667     3.8667     0.0000
 27 H      0.9270     1.0000     0.0730     1.0172     1.0172    -0.0000
 28 C      6.1214     6.0000    -0.1214     3.8555     3.8555    -0.0000
 29 H      0.9296     1.0000     0.0704     1.0096     1.0096    -0.0000
 30 C      6.0719     6.0000    -0.0719     3.8519     3.8519     0.0000
 31 H      0.9123     1.0000     0.0877     0.9960     0.9960     0.0000
 32 H      0.9171     1.0000     0.0829     0.9985     0.9985     0.0000
 33 H      0.9230     1.0000     0.0770     0.9994     0.9994     0.0000

  Mayer bond orders larger than 0.100000
B(  0-P ,  1-C ) :   0.9477 B(  0-P , 12-C ) :   0.9484 B(  0-P , 23-C ) :   0.9474 
B(  1-C ,  2-C ) :   1.1824 B(  1-C ,  3-C ) :   1.2392 B(  2-C ,  4-C ) :   1.3363 
B(  2-C ,  5-H ) :   0.9436 B(  3-C ,  6-C ) :   1.3373 B(  3-C ,  7-H ) :   0.9334 
B(  4-C ,  8-C ) :   1.3570 B(  4-C ,  9-H ) :   0.9398 B(  6-C ,  8-C ) :   1.3461 
B(  6-C , 10-H ) :   0.9437 B(  8-C , 11-H ) :   0.9398 B( 12-C , 13-C ) :   1.2398 
B( 12-C , 14-C ) :   1.1815 B( 13-C , 15-C ) :   1.3371 B( 13-C , 16-H ) :   0.9333 
B( 14-C , 17-C ) :   1.3366 B( 14-C , 18-H ) :   0.9436 B( 15-C , 19-C ) :   1.3463 
B( 15-C , 20-H ) :   0.9437 B( 17-C , 19-C ) :   1.3569 B( 17-C , 21-H ) :   0.9398 
B( 19-C , 22-H ) :   0.9398 B( 23-C , 24-C ) :   1.1823 B( 23-C , 25-C ) :   1.2390 
B( 24-C , 26-C ) :   1.3366 B( 24-C , 27-H ) :   0.9435 B( 25-C , 28-C ) :   1.3372 
B( 25-C , 29-H ) :   0.9334 B( 26-C , 30-C ) :   1.3570 B( 26-C , 31-H ) :   0.9398 
B( 28-C , 30-C ) :   1.3462 B( 28-C , 32-H ) :   0.9437 B( 30-C , 33-H ) :   0.9398 


-------
TIMINGS
-------

Total SCF time: 0 days 0 hours 10 min 57 sec 

Total time                  ....     657.398 sec
Sum of individual times     ....     637.039 sec  ( 96.9%)

SCF preparation             ....       0.266 sec  (  0.0%)
Fock matrix formation       ....     621.011 sec  ( 94.5%)
  Startup                   ....       0.103 sec  (  0.0% of F)
  Split-RI-J                ....     181.840 sec  ( 29.3% of F)
  XC integration            ....     458.664 sec  ( 73.9% of F)
    XC Preparation          ....       0.000 sec  (  0.0% of XC)
    Basis function eval.    ....      51.579 sec  ( 11.2% of XC)
    Density eval.           ....     166.167 sec  ( 36.2% of XC)
    XC-Functional eval.     ....       2.676 sec  (  0.6% of XC)
    XC-Potential eval.      ....     233.948 sec  ( 51.0% of XC)
Diagonalization             ....       0.000 sec  (  0.0%)
Density matrix formation    ....       0.641 sec  (  0.1%)
Total Energy calculation    ....       0.125 sec  (  0.0%)
Population analysis         ....       0.442 sec  (  0.1%)
Orbital Transformation      ....       1.605 sec  (  0.2%)
Orbital Orthonormalization  ....       0.000 sec  (  0.0%)
DIIS solution               ....       5.990 sec  (  0.9%)
SOSCF solution              ....       6.960 sec  (  1.1%)
Finished LeanSCF after 657.5 sec

Maximum memory used throughout the entire LEANSCF-calculation: 509.7 MB

-------------------------   --------------------
FINAL SINGLE POINT ENERGY     -1036.644046685794
-------------------------   --------------------


------------------------------------------------------------------------------
                              ORCA PROPERTY CALCULATIONS
------------------------------------------------------------------------------

GBWName                                 ... TPhP_def2qzvp.gbw
Number of atoms                         ...     34
Number of basis functions               ...   1546
Max core memory                         ...   4096 MB

Electric properties:
Dipole moment                           ... YES
Quadrupole moment                       ...  NO
Static polarizability (Dipole/Dipole)   ...  NO
Static polarizability (Dipole/Quad.)    ...  NO
Static polarizability (Quad./Quad.)     ...  NO
Static polarizability (Velocity)        ...  NO
Static hyperpolarizability              ...  NO

Atomic electric properties:
Dipole moment                           ...  NO
Quadrupole moment                       ...  NO
Static polarizability                   ...  NO

Choice of electric origin               ... Center of mass
Position of electric origin             ...    -6.584017     2.541787    -0.157538

General magnetic properties:
Magnetizability                         ...  NO

EPR properties:
g-Tensor (aka g-matrix)                 ...  NO
Zero-Field splitting spin-orbit         ...  NO
Zero-field splitting spin-spin          ...  NO
Hyperfine couplings                     ...  NO (   0 nuclei)
Quadrupole couplings                    ...  NO (   0 nuclei)
Contact density                         ...  NO (   0 nuclei)

NMR properties:
Chemical shifts                         ...  NO (   0 nuclei)
Spin-rotation constants                 ...  NO (   0 nuclei)
Spin-spin couplings                     ...  NO (   0 nuclei,    0 pairs)

Choice of magnetic origin               ... GIAO
Position of magnetic origin             ...     0.000000     0.000000     0.000000

Properties with geometric perturbations:
SCF Hessian                             ...  NO
IR spectrum                             ...  NO
VCD spectrum                            ...  NO
X-ray spectroscopy properties:
SCF XES/XAS/RIXS spectra                ...  NO

SCF SOC stabilization energy            ...  NO
Diagonal Born-Oppenheimer correction    ...  NO

-------------
DIPOLE MOMENT
-------------

Method             : SCF
Type of density    : Electron Density
Multiplicity       :   1
Irrep              :   0
Energy             : -1036.6440466857943647 Eh
Basis              : AO
                                X                 Y                 Z
Electronic contribution:      5.609249371      -0.353437352      -0.273811498
Nuclear contribution   :     -6.151975158       0.387476880       0.301799542
                        -----------------------------------------
Total Dipole Moment    :     -0.542725786       0.034039528       0.027988044
                        -----------------------------------------
Magnitude (a.u.)       :      0.544511983
Magnitude (Debye)      :      1.384039468



--------------------
Rotational spectrum 
--------------------
 
Rotational constants in cm-1:             0.011984             0.011977             0.007129 
Rotational constants in MHz :           359.284006           359.071105           213.720295 

Dipole components along the rotational axes: 
x,y,z [a.u.] :    -0.000766    -0.000821     0.544511 
x,y,z [Debye]:    -0.001946    -0.002086     1.384037 

 

Dipole moment calculation done in   0.0 sec 

Maximum memory used throughout the entire PROP-calculation: 463.8 MB

--------------------------------
SUGGESTED CITATIONS FOR THIS RUN
--------------------------------

Below you find a list of papers that are relevant to this ORCA run
We neither can nor want to force you to cite these papers, but we appreciate if you do
You receive ORCA, which is the product of decades of hard work by many enthusiastic individuals, for free
The only thing we kindly ask in return is that you cite our papers,
We deeply appreciate it, if you show your appreciation for ORCA by not just citing the generic ORCA reference.

Please note that relegating all ORCA citations to the supporting information does *not* help us.
SI sections are not indexed - citations you put there will not count into any citation statistics
But we need these citations in order to attract the funding resources that allow us to do what we are doing

Therefore, if you are a happy ORCA user, please consider citing a few of the papers listed below in the main body of your paper

In addition to the list printed below, the program has created the file TPhP_def2qzvp.bibtex that contains the list in bibtex format
You can import this file easily into all common literature databanks and citation aid programs

It goes without saying that in many instances, there are alternative algorithms to achieve similar
results as the ones you have gotten from ORCA. It is, of course, also the case that in some instances
ORCA just re-implements algorithms worked out by others. We are fully aware of that and we are also
fully appreciative of our colleagues work. Hence this citation list should not be read as indicating
that the listed papers, which are focused on our own work, are the only ones worth citing. It simply
meant to make it easier for users to cite ORCA specific papers. It is not a substitute for doing your
own literature research and citing the relevant literature in a scientifically appropriate manner.

List of essential papers. We consider these as the minimum necessary citations

  1. Neese, F.
     Software update: the ORCA program system, version 6.0
     WIRES Comput. Molec. Sci. 2025 15(1), e70019
     doi.org/10.1002/wcms.70019

List of papers to cite with high priority. The work reported in these papers was absolutely
necessary for this run to complete.
Our perspective: the developers of density functionals and basis sets usually get cited in chemistry papers
Good! But without the algorithms to do something with them, the functionals or basis sets would not do anything.
Hence, in our opinion, the algorithm design and method developments papers are equally worthy of getting cited

  1. Neese, F.
     An improvement of the resolution of the identity approximation for the formation of the Coulomb matrix
     J. Comp. Chem. 2003 24(14), 1740-1747
     doi.org/10.1002/jcc.10318
  2. Neese, F.
     The SHARK Integral Generation and Digestion System
     J. Comp. Chem. 2022 44(3), 381
     doi.org/10.1002/jcc.26942

List of suggested additional citations. These are papers that are important in the 'surrounding' of 
of this run, or papers that preceded the highly important papers. If you like your results we are grateful for a citation.

  1. Neese, F.
     The ORCA program system
     WIRES Comput. Molec. Sci. 2012 2(1), 73-78
     doi.org/10.1002/wcms.81
  2. Neese, F.
     Software update: the ORCA program system, version 4.0
     WIRES Comput. Molec. Sci. 2018 8(1), 1-6
     doi.org/10.1002/wcms.1327
  3. Neese, F.; Wennmohs, F.; Becker, U.; Riplinger, C.
     The ORCA quantum chemistry program package
     J. Chem. Phys. 2020 152(22), 224108
     doi.org/10.1063/5.0004608
  4. Neese, F.
     Software update: The ORCA program system—Version 5.0
     WIRES Comput. Molec. Sci. 2022 12(1), e1606
     doi.org/10.1002/wcms.1606

List of optional additional citations

  1. Neese, F.
     Approximate second-order SCF convergence for spin unrestricted wavefunctions
     Chem. Phys. Lett. 2000 325(1-3), 93-98
     doi.org/10.1016/s0009-2614(00)00662-x

Timings for individual modules:

Sum of individual times          ...      678.222 sec (=  11.304 min)
Startup calculation              ...        9.360 sec (=   0.156 min)   1.4 %
SCF iterations                   ...      668.616 sec (=  11.144 min)  98.6 %
Property calculations            ...        0.245 sec (=   0.004 min)   0.0 %
                             ****ORCA TERMINATED NORMALLY****
TOTAL RUN TIME: 0 days 0 hours 11 minutes 18 seconds 730 msec
