
                                 *****************
                                 * O   R   C   A *
                                 *****************

                                            #,                                       
                                            ###                                      
                                            ####                                     
                                            #####                                    
                                            ######                                   
                                           ########,                                 
                                     ,,################,,,,,                         
                               ,,#################################,,                 
                          ,,##########################################,,             
                       ,#########################################, ''#####,          
                    ,#############################################,,   '####,        
                  ,##################################################,,,,####,       
                ,###########''''           ''''###############################       
              ,#####''   ,,,,##########,,,,          '''####'''          '####       
            ,##' ,,,,###########################,,,                        '##       
           ' ,,###''''                  '''############,,,                           
         ,,##''                                '''############,,,,        ,,,,,,###''
      ,#''                                            '''#######################'''  
     '                                                          ''''####''''         
             ,#######,   #######,   ,#######,      ##                                
            ,#'     '#,  ##    ##  ,#'     '#,    #''#        ,####,    ,#,          
            ##       ##  ##   ,#'  ##            #'  '#       #'       ,# #          
            ##       ##  #######   ##           ,######,      #####,      #          
            '#,     ,#'  ##    ##  '#,     ,#' ,#      #,     #,   #      #          
             '#######'   ##     ##  '#######'  #'      '#     '####' #    #          



                #########################################################
                #                        -***-                          #
                #          Department of theory and spectroscopy        #
                #                                                       #
                #                      Frank Neese                      #
                #                                                       #
                #     Directorship, Architecture, Infrastructure        #
                #                    SHARK, DRIVERS                     #
                #        Core code/Algorithms in most modules           #
                #                                                       #
                #        Max Planck Institute fuer Kohlenforschung      #
                #                Kaiser Wilhelm Platz 1                 #
                #                 D-45470 Muelheim/Ruhr                 #
                #                      Germany                          #
                #                                                       #
                #                  All rights reserved                  #
                #                        -***-                          #
                #########################################################


                         Program Version 6.1.1  -  RELEASE   -
                                (GIT: $487d211c$)
                          ($2025-11-21 10:33:24 +0100$)


 With contributions from (in alphabetic order):
[Max-Planck-Institut fuer Kohlenforschung]                               
  Daniel Aravena         : Magnetic Suceptibility                        
  Michael Atanasov       : Ab Initio Ligand Field Theory (pilot matlab implementation)
  Alexander A. Auer      : GIAO ZORA, VPT2 properties, NMR spectrum      
  Ute Becker             : All parallelization in ORCA, NUMFREQ, NUMCALC 
  Giovanni Bistoni       : ED, misc. LED, open-shell LED, HFLD           
  Dmytro Bykov           : pre 5.0 version of the SCF Hessian            
  Marcos Casanova-Páez   : Triplet and SCS-CIS(D). UHF-(DLPNO)-IP/EA/STEOM-CCSD. UHF-CVS-IP/STEOM-CCSD   
  Vijay G. Chilkuri      : MRCI spin determinant printing, contributions to CSF-ICE 
  Pauline Colinet        : FMM embedding                                 
  Dipayan Datta          : RHF DLPNO-CCSD density                        
  Achintya Kumar Dutta   : EOM-CC, STEOM-CC                              
  Nicolas Foglia         : Exact transition moments, OPA infrastructure, MCD improvements    
  Dmitry Ganyushin       : Spin-Orbit,Spin-Spin,Magnetic field MRCI      
  Miquel Garcia-Rates    : C-PCM and meta-GGA Hessian, CCSD/C-PCM, Gaussian charge scheme 
  Tiago L. C. Gouveia    : GS-ROHF, GS-ROCIS                             
  Yang Guo               : DLPNO-NEVPT2, F12-NEVPT2, CIM, IAO-localization        
  Andreas Hansen         : Spin unrestricted coupled pair/coupled cluster methods 
  Ingolf Harden          : AUTO-CI MPn and infrastructure                
  Benjamin Helmich-Paris : MC-RPA, TRAH-(SCF,CASSCF), AVAS, COSX integrals, SCF dyn. polar., MC-PDFT, srDFT 
  Lee Huntington         : MR-EOM, pCC                                   
  Robert Izsak           : Overlap fitted RIJCOSX, COSX-SCS-MP3, EOM     
  Riya Kayal             : Wick's Theorem for AUTO-CI, AUTO-CI UHF-CCSDT 
  Emily Kempfer          : AUTO-CI RHF CISDT and CCSDT, approximate NEVPT4
  Christian Kollmar      : KDIIS, OOCD, Brueckner-CCSD(T), CCSD density, CASPT2, CASPT2-K, improved NEVPT2 
  Axel Koslowski         : Symmetry handling                             
  Simone Kossmann        : meta-GGA functionals, TD-DFT gradient, OOMP2, (MP2 Hessian; deprecated post 5.0) 
  Lucas Lang             : DCDCAS, Hyperfine gauge corrections, ICE-SOC+SSC
  Marvin Lechner         : AUTO-CI (C++ implementation), FIC-MRCC        
  Spencer Leger          : CASSCF response                               
  Dagmar Lenk            : GEPOL surface, SMD, ORCA-2-JSON               
  Dimitrios Liakos       : Extrapolation schemes; Compound Job, Property file
  Dimitrios Manganas     : Further ROCIS development; embedding schemes. LFT, Crystal Embedding 
  Dimitrios Pantazis     : SARC Basis sets                               
  Anastasios Papadopoulos: AUTO-CI, single reference methods and gradients 
  Taras Petrenko         : pre 6.0 DFT Hessian and TD-DFT gradient,  ECA, NRVS 
  Petra Pikulova         : Analytic Raman intensities                    
  Peter Pinski           : DLPNO-MP2, DLPNO-MP2 Gradient                 
  Shashank Vittal Rao    : ES-AILFT, MagRelax                            
  Christoph Reimann      : Effective Core Potentials                     
  Marius Retegan         : Local ZFS, SOC                                
  Christoph Riplinger    : Optimizer, TS searches, QM/MM, DLPNO-CCSD(T), (RO)-DLPNO pert. Triples 
  Michael Roemelt        : Original ROCIS implementation, recursive CI coupling coefficients
  Masaaki Saitow         : Open-shell DLPNO-CCSD energy and density      
  Barbara Sandhoefer     : DKH picture change effects                    
  Yorick L. A. Schmerwitz: GMF and freeze-and-release deltaSCF, NEB S-IDPP initial path                    
  Kantharuban Sivalingam : CASSCF convergence/infrastructure, NEVPT2, NEVPT3, NEVPT4(SD), FIC-MRCI and CEPA variants
  Bernardo de Souza      : ESD, SOC TD-DFT                               
  Georgi L. Stoychev     : AutoAux, RI-MP2 NMR, DLPNO-MP2 response, X2C  
  Van Anh Tran           : RI-MP2 g-tensors                              
  Willem Van den Heuvel  : Paramagnetic NMR                              
  Zikuan Wang            : NOTCH, Electric field optimization            
  Frank Wennmohs         : Technical directorship and infrastructure     
  Hang Xu                : AUTO-CI-Response properties                   
                                                                         
[FACCTs GmbH]                                                            
  Markus Bursch, Nicolas Foglia, Miquel Garcia-Rates, Ingolf Harden, Hagen Neugebauer, Anastasios Papadopoulos, 
  Christoph Riplinger, Bernardo de Souza, Georgi L. Stoychev                                                    
                                                                 
  APM, various basis sets, CI-OPT, improved COSX, DLPNO-Multilevel,           
  DOCKER, DRACO, updates on ESD, Fragmentator, GOAT, IRC, LR-CPCM, L-BFGS, MBIS, meta-GGA TD-DFT gradient, ML-optimized integration grids, 
  MM, NACMEs, nearIR, NEB, NEB-TS, NL-DFT gradient (VV10), 2- and 3-layer-ONIOM, interface openCOSMO-RS, QMMM,   
  Crystal-QMMM, RESP, rigid body optimization, SF, symmetry and pop. for TD-DFT, various functionals, SOLVATOR                                   
                                                                         
[Other institutions]                                                     
  V. Asgeirsson          : NEB                                           
  Christoph Bannwarth    : sTDA-DFT, sTD-DFT, PBEh-3c, B97-3c, D3        
  Giovanni Bistoni       : ETS/NOCV, ADLD/ADEX, COVALED                  
  Martin Brehm           : Molecular dynamics                            
  Ronald Cardenas        : ETS/NOCV                                      
  Martina Colucci        : COVALED                                       
  Sebastian Ehlert       : rSCAN, r2SCAN, r2SCAN-3c, D4, dhf basis sets  
  Marvin Friede          : D4 for Fr, Ra, Ac-Lr                          
  Lars Goerigk           : TD-DFT with DH, B97 family of functionals     
  Stefan Grimme          : VdW corrections, initial TS optimization, DFT functionals, gCP, sTDA/sTD-DF 
  Waldemar Hujo          : DFT-NL                                        
  H. Jonsson             : NEB                                           
  Holger Kruse           : gCP                                           
  Marcel Mueller         : wB97X-3c, vDZP basis set                      
  Hagen Neugebauer       : wr2SCAN, Native XTB                           
  Gianluca Regni         : ADLD/ADEX                                     
  Tobias Risthaus        : pre 6.0 range-separated hybrid DFT and stability analysis
  Lukas Wittmann         : regularized MP2, r2SCAN double-hybrids, wr2SCAN        
                                                                         
We gratefully acknowledge several colleagues who have allowed us to      
interface, adapt or use parts of their codes:                            
  Ed Valeev, F. Pavosevic, A. Kumar             : LibInt (2-el integral package), F12 methods 
  Garnet Chan, S. Sharma, J. Yang, R. Olivares  : DMRG                   
  Ulf Ekstrom                                   : XCFun DFT Library      
  Mihaly Kallay                                 : mrcc  (arbitrary order and MRCC methods)
  Frank Weinhold                                : gennbo (NPA and NBO analysis)           
  Simon Mueller                                 : openCOSMO-RS                            
  Christopher J. Cramer and Donald G. Truhlar   : smd solvation model                     
  S Lehtola, MJT Oliveira, MAL Marques          : LibXC Library                           
  Liviu Ungur et al                             : ANISO software                          


 Your calculation uses the libint2 library for the computation of 2-el integrals
 For citations please refer to: http://libint.valeyev.net

 Your ORCA version has been built with support for libXC version: 7.0.0
 For citations please refer to: https://libxc.gitlab.io

 This ORCA versions uses:
   CBLAS   interface :  Fast vector & matrix operations
   LAPACKE interface :  Fast linear algebra routines
   SCALAPACK package :  Parallel linear algebra routines
   Shared memory     :  Shared parallel matrices
   BLAS/LAPACK       :  OpenBLAS 0.3.29  USE64BITINT DYNAMIC_ARCH NO_AFFINITY Cooperlake SINGLE_THREADED
        Core in use  :  Cooperlake
   Copyright (c) 2011-2014, The OpenBLAS Project


  ***********************************
  * Starting time: Mon Jul 13 23:25:42 2026
  * Host name:     c1-35
  * Process ID:    156040
  * Working dir.:  /cluster/projects/nn14654k/ylvaos/TPhP_bsse/orca/opt1_bp86
  ***********************************

Warning: RI is on but no J-basis has been assigned. Assigning Def2/J (nothing to worry about!)
================================================================================

----- Orbital basis set information -----
Your calculation utilizes the basis: def2-SVP
   F. Weigend and R. Ahlrichs, Phys. Chem. Chem. Phys. 7, 3297 (2005).

----- AuxJ basis set information -----
Your calculation utilizes the auxiliary basis: def2/J
   H-Rn: F. Weigend, Phys. Chem. Chem. Phys. 8, 1057 (2006).
   Fr-Lr: K. Eichkorn, F. Weigend, O. Treutler, R. Ahlrichs; Theor. Chem. Acc. 97, 119 (1997).

================================================================================
                                        WARNINGS
                       Please study these warnings very carefully!
================================================================================


================================================================================
                                       INPUT FILE
================================================================================
NAME = TPhP_def2svp.inp
|  1> ! BP86 def2-SVP VeryTightSCF defgrid3
|  2> 
|  3> *xyz 0 1
|  4>   P          -2.23335238093662      1.26630433347071     -0.14480736191397
|  5>   C          -3.17354547274218      0.72788610800673     -1.63155613349146
|  6>   C          -4.28235759336237      1.40717707649288     -2.15045519705861
|  7>   C          -2.73533013438309     -0.44181045522253     -2.26970052358871
|  8>   C          -4.94447517206266      0.92004585122523     -3.27991243911499
|  9>   H          -4.63440068945354      2.32322239218967     -1.66935535768693
| 10>   C          -3.40313608738305     -0.93575156669368     -3.38971659043926
| 11>   H          -1.85953273973757     -0.97189774365071     -1.88082797148354
| 12>   C          -4.51012188792971     -0.25271226540692     -3.89895974422482
| 13>   H          -5.80850130605865      1.46128894527484     -3.67670770012163
| 14>   H          -3.05263879810440     -1.85226310206907     -3.87328192982297
| 15>   H          -5.03115567518013     -0.63301852663098     -4.78245215059272
| 16>   C          -3.06258435584142      0.29002820368579      1.17557488356205
| 17>   C          -2.45303500430232      0.28612967584872      2.43876771877009
| 18>   C          -4.24743775455895     -0.43332730577243      0.99344205875477
| 19>   C          -3.02560886338018     -0.40748317311214      3.50440877873836
| 20>   H          -1.51776519339383      0.83608796672730      2.58720048186482
| 21>   C          -4.81518090324435     -1.13873702091007      2.05706177221231
| 22>   H          -4.73300520317328     -0.44601805176046      0.01434839075353
| 23>   C          -4.20924153423702     -1.12434765096751      3.31407154114513
| 24>   H          -2.54121823481779     -0.39667815739587      4.48517953566244
| 25>   H          -5.74019441814209     -1.70178373198931      1.90131392362402
| 26>   H          -4.65656149661553     -1.67635964454681      4.14585572581564
| 27>   C          -2.94688510900037      2.93713346247516      0.14371531660582
| 28>   C          -4.01602279605028      3.19795402611964      1.00919725674912
| 29>   C          -2.36889206975656      4.00352808041267     -0.56062981482029
| 30>   C          -4.50260007586930      4.49876401564898      1.15911926566048
| 31>   H          -4.47491653638971      2.37998138978868      1.57033599857938
| 32>   C          -2.86190131625911      5.30041108367437     -0.42119469220601
| 33>   H          -1.52205306183268      3.81224492962065     -1.22809321026049
| 34>   C          -3.93077429255410      5.55082897439999      0.44254527617237
| 35>   H          -5.33731930768447      4.68970624672592      1.84008686276579
| 36>   H          -2.40405926124844      6.12091337191859     -0.98139595205205
| 37>   H          -4.31454327431425      6.56841726242196      0.56048098144235
| 38> *
| 39> 
| 40>                          ****END OF INPUT****
================================================================================

                       ****************************
                       * Single Point Calculation *
                       ****************************

---------------------------------
CARTESIAN COORDINATES (ANGSTROEM)
---------------------------------
  P     -2.233352    1.266304   -0.144807
  C     -3.173545    0.727886   -1.631556
  C     -4.282358    1.407177   -2.150455
  C     -2.735330   -0.441810   -2.269701
  C     -4.944475    0.920046   -3.279912
  H     -4.634401    2.323222   -1.669355
  C     -3.403136   -0.935752   -3.389717
  H     -1.859533   -0.971898   -1.880828
  C     -4.510122   -0.252712   -3.898960
  H     -5.808501    1.461289   -3.676708
  H     -3.052639   -1.852263   -3.873282
  H     -5.031156   -0.633019   -4.782452
  C     -3.062584    0.290028    1.175575
  C     -2.453035    0.286130    2.438768
  C     -4.247438   -0.433327    0.993442
  C     -3.025609   -0.407483    3.504409
  H     -1.517765    0.836088    2.587200
  C     -4.815181   -1.138737    2.057062
  H     -4.733005   -0.446018    0.014348
  C     -4.209242   -1.124348    3.314072
  H     -2.541218   -0.396678    4.485180
  H     -5.740194   -1.701784    1.901314
  H     -4.656561   -1.676360    4.145856
  C     -2.946885    2.937133    0.143715
  C     -4.016023    3.197954    1.009197
  C     -2.368892    4.003528   -0.560630
  C     -4.502600    4.498764    1.159119
  H     -4.474917    2.379981    1.570336
  C     -2.861901    5.300411   -0.421195
  H     -1.522053    3.812245   -1.228093
  C     -3.930774    5.550829    0.442545
  H     -5.337319    4.689706    1.840087
  H     -2.404059    6.120913   -0.981396
  H     -4.314543    6.568417    0.560481

----------------------------
CARTESIAN COORDINATES (A.U.)
----------------------------
  NO LB      ZA    FRAG     MASS         X           Y           Z
   0 P    15.0000    0    30.974   -4.220424    2.392968   -0.273646
   1 C     6.0000    0    12.011   -5.997132    1.375505   -3.083194
   2 C     6.0000    0    12.011   -8.092483    2.659179   -4.063771
   3 C     6.0000    0    12.011   -5.169025   -0.834901   -4.289112
   4 C     6.0000    0    12.011   -9.343704    1.738635   -6.198136
   5 H     1.0000    0     1.008   -8.757748    4.390254   -3.154624
   6 C     6.0000    0    12.011   -6.430995   -1.768314   -6.405636
   7 H     1.0000    0     1.008   -3.514008   -1.836621   -3.554250
   8 C     6.0000    0    12.011   -8.522895   -0.477557   -7.367966
   9 H     1.0000    0     1.008  -10.976477    2.761436   -6.947971
  10 H     1.0000    0     1.008   -5.768651   -3.500270   -7.319442
  11 H     1.0000    0     1.008   -9.507506   -1.196232   -9.037525
  12 C     6.0000    0    12.011   -5.787446    0.548074    2.221515
  13 C     6.0000    0    12.011   -4.635564    0.540707    4.608603
  14 C     6.0000    0    12.011   -8.026494   -0.818870    1.877333
  15 C     6.0000    0    12.011   -5.717572   -0.770032    6.622373
  16 H     1.0000    0     1.008   -2.868161    1.579977    4.889100
  17 C     6.0000    0    12.011   -9.099373   -2.151901    3.887283
  18 H     1.0000    0     1.008   -8.944084   -0.842852    0.027115
  19 C     6.0000    0    12.011   -7.954314   -2.124709    6.262688
  20 H     1.0000    0     1.008   -4.802207   -0.749613    8.475761
  21 H     1.0000    0     1.008  -10.847395   -3.215905    3.592963
  22 H     1.0000    0     1.008   -8.799626   -3.167861    7.834532
  23 C     6.0000    0    12.011   -5.568806    5.550378    0.271583
  24 C     6.0000    0    12.011   -7.589183    6.043257    1.907106
  25 C     6.0000    0    12.011   -4.476557    7.565572   -1.059437
  26 C     6.0000    0    12.011   -8.508681    8.501432    2.190418
  27 H     1.0000    0     1.008   -8.456367    4.497513    2.967505
  28 C     6.0000    0    12.011   -5.408210   10.016325   -0.795943
  29 H     1.0000    0     1.008   -2.876263    7.204099   -2.320760
  30 C     6.0000    0    12.011   -7.428087   10.489547    0.836289
  31 H     1.0000    0     1.008  -10.086072    8.862260    3.477260
  32 H     1.0000    0     1.008   -4.543014   11.566850   -1.854570
  33 H     1.0000    0     1.008   -8.153305   12.412510    1.059156

--------------------------------
INTERNAL COORDINATES (ANGSTROEM)
--------------------------------
 P      0   0   0     0.000000000000     0.00000000     0.00000000
 C      1   0   0     1.839641037044     0.00000000     0.00000000
 C      2   1   0     1.400055990620   124.21412724     0.00000000
 C      2   1   3     1.402658545554   116.87714826   180.08782352
 C      3   2   1     1.396914521468   120.38826900   180.52327461
 H      3   2   1     1.092945752249   119.90821215     0.42139684
 C      4   2   1     1.394409768492   120.74393485   178.87678042
 H      4   2   1     1.095096101537   119.46945188   358.97318579
 C      5   3   2     1.395436828211   120.27967503     0.28020945
 H      5   3   2     1.094043749693   119.67373673   180.11986949
 H      7   4   2     1.093927411541   119.89370633   180.33466917
 H      9   5   3     1.093923165443   120.14606908   179.90963701
 C      1   2   3     1.839605942576   101.20798968    94.04492081
 C     13   1   2     1.402576824777   116.87208302   169.84546877
 C     13   1   2     1.400104687296   124.21353397   349.71144499
 C     14  13   1     1.394464225799   120.74294722   178.83737795
 H     14  13   1     1.095087223039   119.46200284   358.92749575
 C     15  13   1     1.396861497768   120.38497556   180.56767528
 H     15  13   1     1.092959840483   119.90070441     0.48080184
 C     18  15  13     1.395508198497   120.27686602     0.28083370
 H     16  14  13     1.093920612769   119.89549196   180.33386995
 H     18  15  13     1.094042500975   119.67926206   180.12426381
 H     20  18  15     1.093927474591   120.14210328   179.90959331
 C      1   2   3     1.839577198263   101.20667247   350.06990150
 C     24   1   2     1.400050623729   124.21926293    93.85600271
 C     24   1   2     1.402631633304   116.86844184   273.96777545
 C     25  24   1     1.396903964792   120.38581365   180.55916818
 H     25  24   1     1.092949855342   119.90662728     0.45660229
 C     26  24   1     1.394419518905   120.74340674   178.84459228
 H     26  24   1     1.095094942629   119.46736652   358.94388076
 C     27  25  24     1.395458235243   120.27898396     0.27610742
 H     27  25  24     1.094043874750   119.67541416   180.11882110
 H     29  26  24     1.093923582287   119.89462568   180.33623389
 H     31  27  25     1.093925676570   120.14514420   179.90678468

---------------------------
INTERNAL COORDINATES (A.U.)
---------------------------
 P      0   0   0     0.000000000000     0.00000000     0.00000000
 C      1   0   0     3.476417744737     0.00000000     0.00000000
 C      2   1   0     2.645722394428   124.21412724     0.00000000
 C      2   1   3     2.650640510502   116.87714826   180.08782352
 C      3   2   1     2.639785878072   120.38826900   180.52327461
 H      3   2   1     2.065368150983   119.90821215     0.42139684
 C      4   2   1     2.635052580915   120.74393485   178.87678042
 H      4   2   1     2.069431722230   119.46945188   358.97318579
 C      5   3   2     2.636993442506   120.27967503     0.28020945
 H      5   3   2     2.067443065448   119.67373673   180.11986949
 H      7   4   2     2.067223218202   119.89370633   180.33466917
 H      9   5   3     2.067215194239   120.14606908   179.90963701
 C      1   2   3     3.476351425803   101.20798968    94.04492081
 C     13   1   2     2.650486080614   116.87208302   169.84546877
 C     13   1   2     2.645814417809   124.21353397   349.71144499
 C     14  13   1     2.635155490311   120.74294722   178.83737795
 H     14  13   1     2.069414944300   119.46200284   358.92749575
 C     15  13   1     2.639685677800   120.38497556   180.56767528
 H     15  13   1     2.065394773886   119.90070441     0.48080184
 C     18  15  13     2.637128312802   120.27686602     0.28083370
 H     16  14  13     2.067210370385   119.89549196   180.33386995
 H     18  15  13     2.067440705714   119.67926206   180.12426381
 H     20  18  15     2.067223337350   120.14210328   179.90959331
 C      1   2   3     3.476297106923   101.20667247   350.06990150
 C     24   1   2     2.645712252474   124.21926293    93.85600271
 C     24   1   2     2.650589653719   116.86844184   273.96777545
 C     25  24   1     2.639765928846   120.38581365   180.55916818
 H     25  24   1     2.065375904705   119.90662728     0.45660229
 C     26  24   1     2.635071006526   120.74340674   178.84459228
 H     26  24   1     2.069429532210   119.46736652   358.94388076
 C     27  25  24     2.637033895934   120.27898396     0.27610742
 H     27  25  24     2.067443301772   119.67541416   180.11882110
 H     29  26  24     2.067215981960   119.89462568   180.33623389
 H     31  27  25     2.067219939581   120.14514420   179.90678468

---------------------
BASIS SET INFORMATION
---------------------
There are 3 groups of distinct atoms

 Group   1 Type P   : 10s7p1d contracted to 4s3p1d pattern {5311/511/1}
 Group   2 Type C   : 7s4p1d contracted to 3s2p1d pattern {511/31/1}
 Group   3 Type H   : 4s1p contracted to 2s1p pattern {31/1}

Atom   0P    basis set group =>   1
Atom   1C    basis set group =>   2
Atom   2C    basis set group =>   2
Atom   3C    basis set group =>   2
Atom   4C    basis set group =>   2
Atom   5H    basis set group =>   3
Atom   6C    basis set group =>   2
Atom   7H    basis set group =>   3
Atom   8C    basis set group =>   2
Atom   9H    basis set group =>   3
Atom  10H    basis set group =>   3
Atom  11H    basis set group =>   3
Atom  12C    basis set group =>   2
Atom  13C    basis set group =>   2
Atom  14C    basis set group =>   2
Atom  15C    basis set group =>   2
Atom  16H    basis set group =>   3
Atom  17C    basis set group =>   2
Atom  18H    basis set group =>   3
Atom  19C    basis set group =>   2
Atom  20H    basis set group =>   3
Atom  21H    basis set group =>   3
Atom  22H    basis set group =>   3
Atom  23C    basis set group =>   2
Atom  24C    basis set group =>   2
Atom  25C    basis set group =>   2
Atom  26C    basis set group =>   2
Atom  27H    basis set group =>   3
Atom  28C    basis set group =>   2
Atom  29H    basis set group =>   3
Atom  30C    basis set group =>   2
Atom  31H    basis set group =>   3
Atom  32H    basis set group =>   3
Atom  33H    basis set group =>   3
---------------------------------
AUXILIARY/J BASIS SET INFORMATION
---------------------------------
There are 3 groups of distinct atoms

 Group   1 Type P   : 14s5p5d2f1g contracted to 8s4p3d1f1g pattern {71111111/2111/311/2/1}
 Group   2 Type C   : 12s5p4d2f1g contracted to 6s4p3d1f1g pattern {711111/2111/211/2/1}
 Group   3 Type H   : 5s2p1d contracted to 3s1p1d pattern {311/2/1}

Atom   0P    basis set group =>   1
Atom   1C    basis set group =>   2
Atom   2C    basis set group =>   2
Atom   3C    basis set group =>   2
Atom   4C    basis set group =>   2
Atom   5H    basis set group =>   3
Atom   6C    basis set group =>   2
Atom   7H    basis set group =>   3
Atom   8C    basis set group =>   2
Atom   9H    basis set group =>   3
Atom  10H    basis set group =>   3
Atom  11H    basis set group =>   3
Atom  12C    basis set group =>   2
Atom  13C    basis set group =>   2
Atom  14C    basis set group =>   2
Atom  15C    basis set group =>   2
Atom  16H    basis set group =>   3
Atom  17C    basis set group =>   2
Atom  18H    basis set group =>   3
Atom  19C    basis set group =>   2
Atom  20H    basis set group =>   3
Atom  21H    basis set group =>   3
Atom  22H    basis set group =>   3
Atom  23C    basis set group =>   2
Atom  24C    basis set group =>   2
Atom  25C    basis set group =>   2
Atom  26C    basis set group =>   2
Atom  27H    basis set group =>   3
Atom  28C    basis set group =>   2
Atom  29H    basis set group =>   3
Atom  30C    basis set group =>   2
Atom  31H    basis set group =>   3
Atom  32H    basis set group =>   3
Atom  33H    basis set group =>   3
------------------------------------------------------------------------------
                             ORCA STARTUP CALCULATIONS
                           -- RI-GTO INTEGRALS CHOSEN --
------------------------------------------------------------------------------
------------------------------------------------------------------------------
                   ___                                                        
                  /   \      - P O W E R E D   B Y -                         
                 /     \                                                     
                 |  |  |   _    _      __       _____    __    __             
                 |  |  |  | |  | |    /  \     |  _  \  |  |  /  |          
                  \  \/   | |  | |   /    \    | | | |  |  | /  /          
                 / \  \   | |__| |  /  /\  \   | |_| |  |  |/  /          
                |  |  |   |  __  | /  /__\  \  |    /   |      \           
                |  |  |   | |  | | |   __   |  |    \   |  |\   \          
                \     /   | |  | | |  |  |  |  | |\  \  |  | \   \       
                 \___/    |_|  |_| |__|  |__|  |_| \__\ |__|  \__/        
                                                                              
                      - O R C A' S   B I G   F R I E N D -                    
                                      &                                       
                       - I N T E G R A L  F E E D E R -                       
                                                                              
 v1 FN, 2020, v2 2021, v3 2022-2024                                           
------------------------------------------------------------------------------


----------------------
SHARK INTEGRAL PACKAGE
----------------------

Number of atoms                             ...     34
Number of basis functions                   ...    345
Number of shells                            ...    161
Maximum angular momentum                    ...      2
Integral batch strategy                     ... SHARK/LIBINT Hybrid
RI-J (if used) integral strategy            ... SPLIT-RIJ (Revised 2003 algorithm where possible)
Printlevel                                  ...      1
Contraction scheme used                     ... SEGMENTED contraction
Prescreening option                         ... SCHWARTZ
   Thresh                                   ... 1.000e-12
   Tcut                                     ... 1.000e-14
   Tpresel                                  ... 1.000e-14 
Coulomb Range Separation                    ... NOT USED
Exchange Range Separation                   ... NOT USED
Multipole approximations                    ... NOT USED
Finite Nucleus Model                        ... NOT USED
CABS basis                                  ... NOT available
Auxiliary Coulomb fitting basis             ... AVAILABLE
   # of basis functions in Aux-J            ...   1098
   # of shells in Aux-J                     ...    362
   Maximum angular momentum in Aux-J        ...      4
Auxiliary J/K fitting basis                 ... NOT available
Auxiliary Correlation fitting basis         ... NOT available
Auxiliary 'external' fitting basis          ... NOT available

Checking pre-screening integrals            ... done (  0.0 sec) Dimension = 161
   => SHARK Basis and OBASIS are compatible. Storing Pre-screening
Shell pair information
Shell pair cut-off parameter TPreSel        ...   1.0e-14
Total number of shell pairs                 ...     13041
Shell pairs after pre-screening             ...     10888
Total number of primitive shell pairs       ...     48197
Primitive shell pairs kept                  ...     26647
          la=0 lb=0:   3304 shell pairs
          la=1 lb=0:   4037 shell pairs
          la=1 lb=1:   1280 shell pairs
          la=2 lb=0:   1332 shell pairs
          la=2 lb=1:    801 shell pairs
          la=2 lb=2:    134 shell pairs

Checking whether 4 symmetric matrices of dimension 345 fit in memory
:Max Core in MB      =   4096.00
 MB in use           =     17.07
 MB left             =   4078.93
 MB needed           =      1.82
 Data fit in memory  = YES
Calculating RI/J V-Matrix + Cholesky decomp.... done (  0.2 sec)
Calculating Nuclear repulsion               ... done (  0.0 sec) ENN=   1412.029176502641 Eh

Diagonalization of the overlap matrix:
Smallest eigenvalue                        ... 2.727e-04
Time for diagonalization                   ...    0.022 sec
Threshold for overlap eigenvalues          ... 1.000e-07
Number of eigenvalues below threshold      ... 0
Time for construction of square roots      ...    0.021 sec
Total time needed                          ...    0.045 sec

-------------------
DFT GRID GENERATION
-------------------

General Integration Accuracy     IntAcc      ... 4.959
Radial Grid Type                 RadialGrid  ... OptM3 with GC (2021)
Angular Grid (max. ang.)         AngularGrid ... 6 (Lebedev-590)
Angular grid pruning method      GridPruning ... 4 (adaptive)
Weight generation scheme         WeightScheme... mBecke (2022)
Basis function cutoff            BFCut       ... 1.0000e-12
Integration weight cutoff        WCut        ... 1.0000e-14
Partially contracted basis set               ... off
Rotationally invariant grid construction     ... off
Angular grids for H and He will be reduced by one unit

Total number of grid points                  ...   399810
Total number of batches                      ...     6266
Average number of points per batch           ...       63
Average number of grid points per atom       ...    11759
Grids setup in   4.9 sec
Initializing property integral containers    ... done (  0.0 sec)

SHARK setup successfully completed in   5.6 seconds

Maximum memory used throughout the entire STARTUP-calculation: 138.5 MB
-------------------------------------------------------------------------------
                                 ORCA GUESS
                   Start orbitals & Density for SCF / CASSCF
-------------------------------------------------------------------------------

------------
SCF SETTINGS
------------
Hamiltonian:
 Density Functional     Method          .... DFT(GTOs)
 Exchange Functional    Exchange        .... B88
   X-Alpha parameter    XAlpha          ....  0.666667
   Becke's b parameter  XBeta           ....  0.004200
 Correlation Functional Correlation     .... P86
 LDA part of GGA corr.  LDAOpt          .... PW91-LDA
 Gradients option       PostSCFGGA      .... off
   NL short-range parameter             ....  4.400000
 RI-approximation to the Coulomb term is turned on
   Number of AuxJ basis functions       .... 1098


General Settings:
 Integral files         IntName         .... TPhP_def2svp
 Hartree-Fock type      HFTyp           .... RHF
 Total Charge           Charge          ....    0
 Multiplicity           Mult            ....    1
 Number of Electrons    NEL             ....  138
 Basis Dimension        Dim             ....  345
 Nuclear Repulsion      ENuc            ....   1412.0291765026 Eh

Convergence Acceleration:
 AO-DIIS                CNVDIIS         .... on
   Start iteration      DIISMaxIt       ....    12
   Startup error        DIISStart       ....  0.200000
   # of expansion vecs  DIISMaxEq       ....     5
   Bias factor          DIISBfac        ....   1.050
   Max. coefficient     DIISMaxC        ....  10.000
 MO-DIIS                CNVKDIIS        .... off
 Trust-Rad. Augm. Hess. CNVTRAH         .... auto
   Auto Start mean grad. ratio tolernc. ....  1.125000
   Auto Start start iteration           ....    50
   Auto Start num. interpolation iter.  ....    10
   Max. Number of Micro iterations      ....    24
   Max. Number of Macro iterations      .... Maxiter - #DIIS iter
   Number of Davidson start vectors     ....     2
   Converg. threshold    (grad. norm)   ....   2.000e-06
   Grad. Scal. Fac. for Micro threshold ....   0.100
   Minimum threshold for Micro iter.    ....   1.000e-02
   NR start threshold (gradient norm)   ....   1.000e-04
   Initial trust radius                 ....   0.400
   Minimum AH scaling param. (alpha)    ....   1.000
   Maximum AH scaling param. (alpha)    .... 1000.000
   Quad. conv. algorithm                .... NR
   White noise on init. David. guess    .... on
   Maximum white noise                  ....   0.010
   Pseudo random numbers                .... off
   Inactive MOs                         .... canonical
   Orbital update algorithm             .... Taylor
   Preconditioner                       .... Diag
   Full preconditioner red. dimension   ....   250
 SOSCF                 CNVSOSCF           .... on
   Start iteration     SOSCFMaxIt         ....   150
   Startup grad/error  SOSCFStart         ....  0.003300
   Hessian update      SOSCFHessUp        .... L-BFGS
   Autom. constraints  SOSCFAutoConstrain .... off
 Level Shifting         CNVShift        .... on
   Level shift para.    LevelShift      ....    0.2500
   Turn off err/grad.   ShiftErr        ....    0.0010
 Zerner damping         CNVZerner       .... off
 Static damping         CNVDamp         .... on
   Fraction old density DampFac         ....    0.7000
   Max. Damping (<1)    DampMax         ....    0.9800
   Min. Damping (>=0)   DampMin         ....    0.0000
   Turn off err/grad.   DampErr         ....    0.1000

SCF Procedure:
 Maximum # iterations   MaxIter         ....   125
 SCF integral mode      SCFMode         .... Direct
   Integral package                     .... SHARK and LIBINT hybrid scheme
 Reset frequency        DirectResetFreq ....    20
 Integral Threshold     Thresh          ....  1.000e-12 Eh
 Primitive CutOff       TCut            ....  1.000e-14 Eh

Convergence Tolerance:
 Convergence Check Mode ConvCheckMode   .... Total+1el-Energy
 Convergence forced     ConvForced      .... 0
 Energy Change          TolE            ....  1.000e-09 Eh
 1-El. energy change                    ....  1.000e-06 Eh
 Orbital Gradient       TolG            ....  2.000e-06
 Orbital Rotation angle TolX            ....  2.000e-06
 DIIS Error             TolErr          ....  1.000e-08

------------------------------
INITIAL GUESS: MODEL POTENTIAL
------------------------------
Loading Hartree-Fock densities                     ... done
Calculating cut-offs                               ... done
Initializing the effective Hamiltonian             ... done
Setting up the integral package (SHARK)            ... done
Starting the Coulomb interaction                   ... done (   0.6 sec)
Making the grid                                    ... done (   0.4 sec)
Mapping shells                                     ... done
Starting the XC term evaluation                    ... done (   0.4 sec)
  promolecular density results
     # of electrons  =    137.993243318
     EX              =   -119.597373089
     EC              =     -5.098834120
     EX+EC           =   -124.696207209
Transforming the Hamiltonian                       ... done (   0.0 sec)
Diagonalizing the Hamiltonian                      ... done (   0.0 sec)
Back transforming the eigenvectors                 ... done (   0.0 sec)
Now organizing SCF variables                       ... done
                      ------------------
                      INITIAL GUESS DONE (   1.4 sec)
                      ------------------
             **** ENERGY FILE WAS UPDATED (TPhP_def2svp.en.tmp) ****
Finished Guess after   1.5 sec
Maximum memory used throughout the entire GUESS-calculation: 28.1 MB

-------------------------------------------------------------------------------------------
                                      ORCA LEAN-SCF
                              memory conserving SCF solver
-------------------------------------------------------------------------------------------

----------------------------------------D-I-I-S--------------------------------------------
Iteration    Energy (Eh)           Delta-E    RMSDP     MaxDP     DIISErr   Damp  Time(sec)
-------------------------------------------------------------------------------------------
               ***  Starting incremental Fock matrix formation  ***
    1    -1035.4107027086593007     0.00e+00  2.10e-03  4.82e-02  1.08e-01  0.700   4.5
    2    -1035.5620220065047761    -1.51e-01  1.49e-03  4.60e-02  5.01e-02  0.700   3.6
                               ***Turning on AO-DIIS***
    3    -1035.6186277597821572    -5.66e-02  6.45e-04  3.65e-02  1.82e-02  0.700   3.6
    4    -1035.6517446963566726    -3.31e-02  1.22e-03  7.31e-02  8.77e-03  0.000   3.4
    5    -1035.7250491222207529    -7.33e-02  2.31e-04  1.44e-02  4.42e-03  0.000   3.5
                              *** Initializing SOSCF ***
---------------------------------------S-O-S-C-F--------------------------------------
Iteration    Energy (Eh)           Delta-E    RMSDP     MaxDP     MaxGrad    Time(sec)
--------------------------------------------------------------------------------------
    6    -1035.7255968133999886    -5.48e-04  8.30e-05  4.80e-03  8.23e-04     3.2
               *** Restarting incremental Fock matrix formation ***
    7    -1035.7256256769210268    -2.89e-05  5.54e-05  2.59e-03  1.74e-04     4.1
    8    -1035.7256250974073737     5.80e-07  2.22e-05  6.45e-04  2.77e-04     3.0
    9    -1035.7256280045903623    -2.91e-06  2.53e-05  1.60e-03  1.24e-04     2.9
   10    -1035.7256280960887125    -9.15e-08  1.08e-05  6.64e-04  9.88e-05     3.0
   11    -1035.7256289370252489    -8.41e-07  9.89e-06  6.94e-04  6.09e-05     2.8
   12    -1035.7256286623751294     2.75e-07  5.55e-06  3.81e-04  8.41e-05     2.8
   13    -1035.7256290867453572    -4.24e-07  3.15e-06  1.64e-04  1.19e-05     2.7
   14    -1035.7256290661794083     2.06e-08  1.75e-06  1.09e-04  2.01e-05     2.7
   15    -1035.7256290999571320    -3.38e-08  6.59e-07  2.00e-05  1.74e-06     2.6
   16    -1035.7256290996097050     3.47e-10  2.84e-07  1.16e-05  1.62e-06     2.5
                 **** Energy Check signals convergence ****

               *****************************************************
               *                     SUCCESS                       *
               *           SCF CONVERGED AFTER  16 CYCLES          *
               *****************************************************

             **** ENERGY FILE WAS UPDATED (TPhP_def2svp.en.tmp) ****

----------------
TOTAL SCF ENERGY
----------------

Total Energy       :      -1035.72562910077977 Eh          -28183.52719 eV

Components:
Nuclear Repulsion  :       1412.02917650264135 Eh           38423.26729 eV
Electronic Energy  :      -2447.75480560342112 Eh          -66606.79448 eV
One Electron Energy:      -4214.76724269365513 Eh         -114689.64738 eV
Two Electron Energy:       1767.01243709023424 Eh           48082.85290 eV

Virial components:
Potential Energy   :      -2062.23741857095820 Eh          -56116.33306 eV
Kinetic Energy     :       1026.51178947017843 Eh           27932.80587 eV
Virial Ratio       :          2.00897587317079

DFT components:
N(Alpha)           :       68.999996847046 electrons
N(Beta)            :       68.999996847046 electrons
N(Total)           :      137.999993694092 electrons
E(X)               :     -121.279517485859 Eh       
E(C)               :       -5.105914381404 Eh       
E(XC)              :     -126.385431867263 Eh       

---------------
SCF CONVERGENCE
---------------

  Last Energy change         ...   -3.4743e-10  Tolerance :   1.0000e-09
  Last MAX-Density change    ...    1.1608e-05  Tolerance :   1.0000e-08
  Last RMS-Density change    ...    2.8383e-07  Tolerance :   1.0000e-09
  Last DIIS Error            ...    8.2345e-04  Tolerance :   1.0000e-08
  Last Orbital Gradient      ...    1.6227e-06  Tolerance :   2.0000e-06
  Last Orbital Rotation      ...    5.2210e-06  Tolerance :   2.0000e-06


----------------
ORBITAL ENERGIES
----------------

  NO   OCC          E(Eh)            E(eV) 
   0   2.0000     -76.342924     -2077.3966 
   1   2.0000      -9.922926      -270.0165 
   2   2.0000      -9.922917      -270.0163 
   3   2.0000      -9.922842      -270.0143 
   4   2.0000      -9.920722      -269.9566 
   5   2.0000      -9.920711      -269.9563 
   6   2.0000      -9.920684      -269.9555 
   7   2.0000      -9.920305      -269.9452 
   8   2.0000      -9.920287      -269.9447 
   9   2.0000      -9.920249      -269.9437 
  10   2.0000      -9.920002      -269.9370 
  11   2.0000      -9.919992      -269.9367 
  12   2.0000      -9.919963      -269.9359 
  13   2.0000      -9.919678      -269.9281 
  14   2.0000      -9.919660      -269.9277 
  15   2.0000      -9.919628      -269.9268 
  16   2.0000      -9.918938      -269.9080 
  17   2.0000      -9.918914      -269.9074 
  18   2.0000      -9.918880      -269.9064 
  19   2.0000      -6.311874      -171.7548 
  20   2.0000      -4.533265      -123.3564 
  21   2.0000      -4.533263      -123.3564 
  22   2.0000      -4.529650      -123.2580 
  23   2.0000      -0.783003       -21.3066 
  24   2.0000      -0.774709       -21.0809 
  25   2.0000      -0.774679       -21.0801 
  26   2.0000      -0.700394       -19.0587 
  27   2.0000      -0.674122       -18.3438 
  28   2.0000      -0.674109       -18.3434 
  29   2.0000      -0.672576       -18.3017 
  30   2.0000      -0.668325       -18.1860 
  31   2.0000      -0.668314       -18.1858 
  32   2.0000      -0.587357       -15.9828 
  33   2.0000      -0.546477       -14.8704 
  34   2.0000      -0.546456       -14.8698 
  35   2.0000      -0.544663       -14.8210 
  36   2.0000      -0.534444       -14.5430 
  37   2.0000      -0.534439       -14.5428 
  38   2.0000      -0.503087       -13.6897 
  39   2.0000      -0.468603       -12.7513 
  40   2.0000      -0.468582       -12.7508 
  41   2.0000      -0.443819       -12.0769 
  42   2.0000      -0.410730       -11.1765 
  43   2.0000      -0.410716       -11.1761 
  44   2.0000      -0.409843       -11.1524 
  45   2.0000      -0.400146       -10.8885 
  46   2.0000      -0.400138       -10.8883 
  47   2.0000      -0.393446       -10.7062 
  48   2.0000      -0.378031       -10.2867 
  49   2.0000      -0.377406       -10.2697 
  50   2.0000      -0.377384       -10.2691 
  51   2.0000      -0.366320        -9.9681 
  52   2.0000      -0.366284        -9.9671 
  53   2.0000      -0.336697        -9.1620 
  54   2.0000      -0.333680        -9.0799 
  55   2.0000      -0.333643        -9.0789 
  56   2.0000      -0.324789        -8.8379 
  57   2.0000      -0.305916        -8.3244 
  58   2.0000      -0.305896        -8.3239 
  59   2.0000      -0.305188        -8.3046 
  60   2.0000      -0.287445        -7.8218 
  61   2.0000      -0.287428        -7.8213 
  62   2.0000      -0.251217        -6.8360 
  63   2.0000      -0.238837        -6.4991 
  64   2.0000      -0.238468        -6.4890 
  65   2.0000      -0.238416        -6.4876 
  66   2.0000      -0.231569        -6.3013 
  67   2.0000      -0.231560        -6.3011 
  68   2.0000      -0.192967        -5.2509 
  69   0.0000      -0.056845        -1.5468 
  70   0.0000      -0.056792        -1.5454 
  71   0.0000      -0.054280        -1.4770 
  72   0.0000      -0.041267        -1.1229 
  73   0.0000      -0.038445        -1.0461 
  74   0.0000      -0.038396        -1.0448 
  75   0.0000       0.028068         0.7638 
  76   0.0000       0.028143         0.7658 
  77   0.0000       0.044048         1.1986 
  78   0.0000       0.058721         1.5979 
  79   0.0000       0.058745         1.5985 
*Only the first 10 virtual orbitals were printed.

                    ********************************
                    * MULLIKEN POPULATION ANALYSIS *
                    ********************************

-----------------------
MULLIKEN ATOMIC CHARGES
-----------------------
   0 P :    0.294868
   1 C :   -0.151772
   2 C :    0.006919
   3 C :    0.017271
   4 C :    0.009272
   5 H :    0.010641
   6 C :    0.005087
   7 H :   -0.001110
   8 C :    0.007609
   9 H :   -0.002377
  10 H :    0.000240
  11 H :   -0.000155
  12 C :   -0.151973
  13 C :    0.017413
  14 C :    0.007108
  15 C :    0.005129
  16 H :   -0.001103
  17 C :    0.009271
  18 H :    0.010590
  19 C :    0.007629
  20 H :    0.000263
  21 H :   -0.002337
  22 H :   -0.000117
  23 C :   -0.151893
  24 C :    0.007021
  25 C :    0.017239
  26 C :    0.009309
  27 H :    0.010542
  28 C :    0.005107
  29 H :   -0.001085
  30 C :    0.007625
  31 H :   -0.002354
  32 H :    0.000255
  33 H :   -0.000130
Sum of atomic charges:    0.0000000

--------------------------------
MULLIKEN REDUCED ORBITAL CHARGES
--------------------------------
  0 P s       :     5.693898  s :     5.693898
      pz      :     2.772420  p :     8.841358
      px      :     3.295816
      py      :     2.773122
      dz2     :     0.033958  d :     0.169876
      dxz     :     0.038597
      dyz     :     0.039726
      dx2y2   :     0.024453
      dxy     :     0.033142

  1 C s       :     3.082895  s :     3.082895
      pz      :     1.010108  p :     3.033824
      px      :     0.998061
      py      :     1.025655
      dz2     :     0.006221  d :     0.035053
      dxz     :     0.007043
      dyz     :     0.006625
      dx2y2   :     0.008094
      dxy     :     0.007069

  2 C s       :     3.236182  s :     3.236182
      pz      :     0.897439  p :     2.724222
      px      :     0.944479
      py      :     0.882303
      dz2     :     0.006730  d :     0.032678
      dxz     :     0.006898
      dyz     :     0.006570
      dx2y2   :     0.006436
      dxy     :     0.006045

  3 C s       :     3.215829  s :     3.215829
      pz      :     0.914074  p :     2.734148
      px      :     0.880829
      py      :     0.939244
      dz2     :     0.007108  d :     0.032752
      dxz     :     0.005906
      dyz     :     0.007363
      dx2y2   :     0.005654
      dxy     :     0.006721

  4 C s       :     3.172854  s :     3.172854
      pz      :     0.958567  p :     2.785118
      px      :     0.892796
      py      :     0.933755
      dz2     :     0.007021  d :     0.032756
      dxz     :     0.005809
      dyz     :     0.007437
      dx2y2   :     0.005761
      dxy     :     0.006728

  5 H s       :     0.966186  s :     0.966186
      pz      :     0.006525  p :     0.023173
      px      :     0.005083
      py      :     0.011565

  6 C s       :     3.172715  s :     3.172715
      pz      :     0.948308  p :     2.789484
      px      :     0.956966
      py      :     0.884210
      dz2     :     0.006584  d :     0.032714
      dxz     :     0.006872
      dyz     :     0.006570
      dx2y2   :     0.006614
      dxy     :     0.006073

  7 H s       :     0.978873  s :     0.978873
      pz      :     0.005472  p :     0.022237
      px      :     0.010545
      py      :     0.006221

  8 C s       :     3.171605  s :     3.171605
      pz      :     0.890924  p :     2.788122
      px      :     0.939304
      py      :     0.957895
      dz2     :     0.005477  d :     0.032664
      dxz     :     0.006129
      dyz     :     0.006418
      dx2y2   :     0.007381
      dxy     :     0.007260

  9 H s       :     0.980352  s :     0.980352
      pz      :     0.005380  p :     0.022025
      px      :     0.010244
      py      :     0.006401

 10 H s       :     0.977690  s :     0.977690
      pz      :     0.006028  p :     0.022070
      px      :     0.005120
      py      :     0.010922

 11 H s       :     0.978140  s :     0.978140
      pz      :     0.010519  p :     0.022015
      px      :     0.006321
      py      :     0.005175

 12 C s       :     3.083000  s :     3.083000
      pz      :     1.018558  p :     3.033918
      px      :     0.999601
      py      :     1.015759
      dz2     :     0.007741  d :     0.035055
      dxz     :     0.009677
      dyz     :     0.006547
      dx2y2   :     0.005732
      dxy     :     0.005358

 13 C s       :     3.215862  s :     3.215862
      pz      :     0.933238  p :     2.733970
      px      :     0.873651
      py      :     0.927081
      dz2     :     0.009900  d :     0.032754
      dxz     :     0.008276
      dyz     :     0.007064
      dx2y2   :     0.003175
      dxy     :     0.004338

 14 C s       :     3.236157  s :     3.236157
      pz      :     0.822972  p :     2.724055
      px      :     0.942091
      py      :     0.958992
      dz2     :     0.007880  d :     0.032680
      dxz     :     0.008746
      dyz     :     0.004947
      dx2y2   :     0.005868
      dxy     :     0.005238

 15 C s       :     3.172737  s :     3.172737
      pz      :     0.866376  p :     2.789422
      px      :     0.944205
      py      :     0.978842
      dz2     :     0.007922  d :     0.032712
      dxz     :     0.008861
      dyz     :     0.004892
      dx2y2   :     0.005847
      dxy     :     0.005190

 16 H s       :     0.978864  s :     0.978864
      pz      :     0.003857  p :     0.022239
      px      :     0.011328
      py      :     0.007054

 17 C s       :     3.172882  s :     3.172882
      pz      :     0.957633  p :     2.785093
      px      :     0.878159
      py      :     0.949300
      dz2     :     0.010035  d :     0.032754
      dxz     :     0.008143
      dyz     :     0.007057
      dx2y2   :     0.003169
      dxy     :     0.004349

 18 H s       :     0.966241  s :     0.966241
      pz      :     0.012784  p :     0.023169
      px      :     0.005879
      py      :     0.004505

 19 C s       :     3.171597  s :     3.171597
      pz      :     0.899144  p :     2.788110
      px      :     0.944662
      py      :     0.944305
      dz2     :     0.007401  d :     0.032664
      dxz     :     0.009070
      dyz     :     0.006537
      dx2y2   :     0.004826
      dxy     :     0.004830

 20 H s       :     0.977666  s :     0.977666
      pz      :     0.011646  p :     0.022070
      px      :     0.005933
      py      :     0.004491

 21 H s       :     0.980313  s :     0.980313
      pz      :     0.003897  p :     0.022025
      px      :     0.011033
      py      :     0.007095

 22 H s       :     0.978102  s :     0.978102
      pz      :     0.009391  p :     0.022015
      px      :     0.005625
      py      :     0.006998

 23 C s       :     3.082931  s :     3.082931
      pz      :     1.023206  p :     3.033906
      px      :     1.000440
      py      :     1.010260
      dz2     :     0.006354  d :     0.035056
      dxz     :     0.005041
      dyz     :     0.006300
      dx2y2   :     0.008355
      dxy     :     0.009005

 24 C s       :     3.236168  s :     3.236168
      pz      :     0.949934  p :     2.724132
      px      :     0.945315
      py      :     0.828884
      dz2     :     0.004396  d :     0.032679
      dxz     :     0.004414
      dyz     :     0.007676
      dx2y2   :     0.007784
      dxy     :     0.008409

 25 C s       :     3.215913  s :     3.215913
      pz      :     0.930609  p :     2.734094
      px      :     0.892110
      py      :     0.911376
      dz2     :     0.003863  d :     0.032754
      dxz     :     0.004366
      dyz     :     0.007630
      dx2y2   :     0.008711
      dxy     :     0.008184

 26 C s       :     3.172846  s :     3.172846
      pz      :     0.927429  p :     2.785090
      px      :     0.897396
      py      :     0.960265
      dz2     :     0.003966  d :     0.032755
      dxz     :     0.004399
      dyz     :     0.007836
      dx2y2   :     0.008577
      dxy     :     0.007976

 27 H s       :     0.966287  s :     0.966287
      pz      :     0.007028  p :     0.023171
      px      :     0.005851
      py      :     0.010292

 28 C s       :     3.172733  s :     3.172733
      pz      :     0.944216  p :     2.789446
      px      :     0.949829
      py      :     0.895401
      dz2     :     0.004463  d :     0.032713
      dxz     :     0.004386
      dyz     :     0.007580
      dx2y2   :     0.007793
      dxy     :     0.008491

 29 H s       :     0.978847  s :     0.978847
      pz      :     0.008004  p :     0.022238
      px      :     0.010166
      py      :     0.004068

 30 C s       :     3.171597  s :     3.171597
      pz      :     0.973584  p :     2.788113
      px      :     0.952943
      py      :     0.861587
      dz2     :     0.006362  d :     0.032664
      dxz     :     0.005013
      dyz     :     0.005810
      dx2y2   :     0.007891
      dxy     :     0.007588

 31 H s       :     0.980329  s :     0.980329
      pz      :     0.008174  p :     0.022025
      px      :     0.009891
      py      :     0.003960

 32 H s       :     0.977674  s :     0.977674
      pz      :     0.006940  p :     0.022070
      px      :     0.005900
      py      :     0.009230

 33 H s       :     0.978115  s :     0.978115
      pz      :     0.004463  p :     0.022015
      px      :     0.005367
      py      :     0.012185



                     *******************************
                     * LOEWDIN POPULATION ANALYSIS *
                     *******************************

----------------------
LOEWDIN ATOMIC CHARGES
----------------------
   0 P :    0.502772
   1 C :   -0.172637
   2 C :   -0.034269
   3 C :   -0.032586
   4 C :   -0.029152
   5 H :    0.033631
   6 C :   -0.029427
   7 H :    0.029447
   8 C :   -0.028306
   9 H :    0.031821
  10 H :    0.032355
  11 H :    0.031430
  12 C :   -0.172685
  13 C :   -0.032565
  14 C :   -0.034151
  15 C :   -0.029428
  16 H :    0.029441
  17 C :   -0.029161
  18 H :    0.033643
  19 C :   -0.028233
  20 H :    0.032364
  21 H :    0.031832
  22 H :    0.031444
  23 C :   -0.172662
  24 C :   -0.034169
  25 C :   -0.032607
  26 C :   -0.029142
  27 H :    0.033630
  28 C :   -0.029439
  29 H :    0.029449
  30 C :   -0.028269
  31 H :    0.031828
  32 H :    0.032361
  33 H :    0.031439

-------------------------------
LOEWDIN REDUCED ORBITAL CHARGES
-------------------------------
  0 P s       :     5.272322  s :     5.272322
      pz      :     2.803583  p :     8.990329
      px      :     3.382321
      py      :     2.804424
      dz2     :     0.047573  d :     0.234578
      dxz     :     0.052881
      dyz     :     0.055559
      dx2y2   :     0.034179
      dxy     :     0.044386

  1 C s       :     2.915878  s :     2.915878
      pz      :     1.053383  p :     3.165703
      px      :     1.056199
      py      :     1.056122
      dz2     :     0.014505  d :     0.091056
      dxz     :     0.018537
      dyz     :     0.017574
      dx2y2   :     0.020473
      dxy     :     0.019968

  2 C s       :     2.869474  s :     2.869474
      pz      :     1.027137  p :     3.075071
      px      :     1.021808
      py      :     1.026126
      dz2     :     0.017332  d :     0.089724
      dxz     :     0.020849
      dyz     :     0.017799
      dx2y2   :     0.016838
      dxy     :     0.016905

  3 C s       :     2.869564  s :     2.869564
      pz      :     1.026089  p :     3.073146
      px      :     1.016085
      py      :     1.030971
      dz2     :     0.018182  d :     0.089877
      dxz     :     0.016335
      dyz     :     0.022082
      dx2y2   :     0.015205
      dxy     :     0.018072

  4 C s       :     2.866561  s :     2.866561
      pz      :     1.028815  p :     3.073821
      px      :     1.012785
      py      :     1.032220
      dz2     :     0.017966  d :     0.088771
      dxz     :     0.016078
      dyz     :     0.021529
      dx2y2   :     0.015178
      dxy     :     0.018019

  5 H s       :     0.896231  s :     0.896231
      pz      :     0.019660  p :     0.070138
      px      :     0.015366
      py      :     0.035112

  6 C s       :     2.866320  s :     2.866320
      pz      :     1.027120  p :     3.074469
      px      :     1.029180
      py      :     1.018169
      dz2     :     0.016860  d :     0.088638
      dxz     :     0.020089
      dyz     :     0.017830
      dx2y2   :     0.016856
      dxy     :     0.017004

  7 H s       :     0.902793  s :     0.902793
      pz      :     0.016490  p :     0.067759
      px      :     0.032041
      py      :     0.019228

  8 C s       :     2.867129  s :     2.867129
      pz      :     1.013371  p :     3.072858
      px      :     1.023690
      py      :     1.035797
      dz2     :     0.014016  d :     0.088319
      dxz     :     0.016380
      dyz     :     0.017833
      dx2y2   :     0.019168
      dxy     :     0.020923

  9 H s       :     0.901254  s :     0.901254
      pz      :     0.016257  p :     0.066925
      px      :     0.031157
      py      :     0.019511

 10 H s       :     0.900751  s :     0.900751
      pz      :     0.018203  p :     0.066894
      px      :     0.015419
      py      :     0.033271

 11 H s       :     0.901609  s :     0.901609
      pz      :     0.031968  p :     0.066960
      px      :     0.019177
      py      :     0.015815

 12 C s       :     2.915864  s :     2.915864
      pz      :     1.072032  p :     3.165757
      px      :     1.065893
      py      :     1.027831
      dz2     :     0.021649  d :     0.091064
      dxz     :     0.026579
      dyz     :     0.015301
      dx2y2   :     0.012848
      dxy     :     0.014687

 13 C s       :     2.869590  s :     2.869590
      pz      :     1.061609  p :     3.073091
      px      :     1.021722
      py      :     0.989760
      dz2     :     0.029245  d :     0.089883
      dxz     :     0.023751
      dyz     :     0.018920
      dx2y2   :     0.006993
      dxy     :     0.010974

 14 C s       :     2.869498  s :     2.869498
      pz      :     1.045060  p :     3.074925
      px      :     1.028907
      py      :     1.000958
      dz2     :     0.022179  d :     0.089728
      dxz     :     0.024602
      dyz     :     0.013565
      dx2y2   :     0.013823
      dxy     :     0.015560

 15 C s       :     2.866320  s :     2.866320
      pz      :     1.038203  p :     3.074473
      px      :     1.034627
      py      :     1.001642
      dz2     :     0.022194  d :     0.088635
      dxz     :     0.024586
      dyz     :     0.013253
      dx2y2   :     0.013668
      dxy     :     0.014934

 16 H s       :     0.902794  s :     0.902794
      pz      :     0.011765  p :     0.067765
      px      :     0.034630
      py      :     0.021370

 17 C s       :     2.866569  s :     2.866569
      pz      :     1.061857  p :     3.073826
      px      :     1.018375
      py      :     0.993593
      dz2     :     0.028833  d :     0.088765
      dxz     :     0.023523
      dyz     :     0.018759
      dx2y2   :     0.006776
      dxy     :     0.010874

 18 H s       :     0.896233  s :     0.896233
      pz      :     0.038686  p :     0.070124
      px      :     0.018029
      py      :     0.013408

 19 C s       :     2.867138  s :     2.867138
      pz      :     1.045580  p :     3.072775
      px      :     1.034173
      py      :     0.993022
      dz2     :     0.021687  d :     0.088320
      dxz     :     0.025784
      dyz     :     0.016236
      dx2y2   :     0.011362
      dxy     :     0.013250

 20 H s       :     0.900740  s :     0.900740
      pz      :     0.035692  p :     0.066896
      px      :     0.018008
      py      :     0.013197

 21 H s       :     0.901242  s :     0.901242
      pz      :     0.012092  p :     0.066926
      px      :     0.033669
      py      :     0.021165

 22 H s       :     0.901598  s :     0.901598
      pz      :     0.028878  p :     0.066959
      px      :     0.017159
      py      :     0.020922

 23 C s       :     2.915860  s :     2.915860
      pz      :     1.036110  p :     3.165738
      px      :     1.051886
      py      :     1.077742
      dz2     :     0.014347  d :     0.091064
      dxz     :     0.014944
      dyz     :     0.016902
      dx2y2   :     0.021066
      dxy     :     0.023804

 24 C s       :     2.869474  s :     2.869474
      pz      :     1.007418  p :     3.074968
      px      :     1.015013
      py      :     1.052537
      dz2     :     0.010720  d :     0.089727
      dxz     :     0.012830
      dyz     :     0.020087
      dx2y2   :     0.022079
      dxy     :     0.024011

 25 C s       :     2.869584  s :     2.869584
      pz      :     0.997365  p :     3.073141
      px      :     1.011342
      py      :     1.064434
      dz2     :     0.009758  d :     0.089882
      dxz     :     0.011163
      dyz     :     0.020550
      dx2y2   :     0.025632
      dxy     :     0.022780

 26 C s       :     2.866564  s :     2.866564
      pz      :     0.999917  p :     3.073810
      px      :     1.008951
      py      :     1.064942
      dz2     :     0.009727  d :     0.088768
      dxz     :     0.011159
      dyz     :     0.021139
      dx2y2   :     0.024532
      dxy     :     0.022211

 27 H s       :     0.896238  s :     0.896238
      pz      :     0.021201  p :     0.070132
      px      :     0.017814
      py      :     0.031117

 28 C s       :     2.866321  s :     2.866321
      pz      :     1.003467  p :     3.074481
      px      :     1.021935
      py      :     1.049079
      dz2     :     0.010766  d :     0.088637
      dxz     :     0.012635
      dyz     :     0.019472
      dx2y2   :     0.022096
      dxy     :     0.023669

 29 H s       :     0.902788  s :     0.902788
      pz      :     0.024607  p :     0.067763
      px      :     0.030864
      py      :     0.012293

 30 C s       :     2.867135  s :     2.867135
      pz      :     1.010357  p :     3.072815
      px      :     1.021750
      py      :     1.040709
      dz2     :     0.014804  d :     0.088319
      dxz     :     0.014876
      dyz     :     0.016132
      dx2y2   :     0.021714
      dxy     :     0.020792

 31 H s       :     0.901247  s :     0.901247
      pz      :     0.024594  p :     0.066925
      px      :     0.030043
      py      :     0.012288

 32 H s       :     0.900743  s :     0.900743
      pz      :     0.020812  p :     0.066895
      px      :     0.017755
      py      :     0.028328

 33 H s       :     0.901601  s :     0.901601
      pz      :     0.013343  p :     0.066960
      px      :     0.016207
      py      :     0.037410



                      *****************************
                      * MAYER POPULATION ANALYSIS *
                      *****************************

  NA   - Mulliken gross atomic population
  ZA   - Total nuclear charge
  QA   - Mulliken gross atomic charge
  VA   - Mayer's total valence
  BVA  - Mayer's bonded valence
  FA   - Mayer's free valence

  ATOM       NA         ZA         QA         VA         BVA        FA
  0 P     14.7051    15.0000     0.2949     2.9938     2.9938    -0.0000
  1 C      6.1518     6.0000    -0.1518     3.8377     3.8377     0.0000
  2 C      5.9931     6.0000     0.0069     3.8804     3.8804     0.0000
  3 C      5.9827     6.0000     0.0173     3.8654     3.8654     0.0000
  4 C      5.9907     6.0000     0.0093     3.8307     3.8307     0.0000
  5 H      0.9894     1.0000     0.0106     0.9906     0.9906     0.0000
  6 C      5.9949     6.0000     0.0051     3.8527     3.8527    -0.0000
  7 H      1.0011     1.0000    -0.0011     0.9908     0.9908    -0.0000
  8 C      5.9924     6.0000     0.0076     3.8218     3.8218     0.0000
  9 H      1.0024     1.0000    -0.0024     0.9784     0.9784     0.0000
 10 H      0.9998     1.0000     0.0002     0.9786     0.9786    -0.0000
 11 H      1.0002     1.0000    -0.0002     0.9785     0.9785    -0.0000
 12 C      6.1520     6.0000    -0.1520     3.8379     3.8379     0.0000
 13 C      5.9826     6.0000     0.0174     3.8651     3.8651     0.0000
 14 C      5.9929     6.0000     0.0071     3.8800     3.8800     0.0000
 15 C      5.9949     6.0000     0.0051     3.8525     3.8525    -0.0000
 16 H      1.0011     1.0000    -0.0011     0.9908     0.9908     0.0000
 17 C      5.9907     6.0000     0.0093     3.8307     3.8307    -0.0000
 18 H      0.9894     1.0000     0.0106     0.9907     0.9907     0.0000
 19 C      5.9924     6.0000     0.0076     3.8218     3.8218    -0.0000
 20 H      0.9997     1.0000     0.0003     0.9786     0.9786     0.0000
 21 H      1.0023     1.0000    -0.0023     0.9784     0.9784    -0.0000
 22 H      1.0001     1.0000    -0.0001     0.9785     0.9785    -0.0000
 23 C      6.1519     6.0000    -0.1519     3.8377     3.8377     0.0000
 24 C      5.9930     6.0000     0.0070     3.8803     3.8803     0.0000
 25 C      5.9828     6.0000     0.0172     3.8653     3.8653     0.0000
 26 C      5.9907     6.0000     0.0093     3.8307     3.8307    -0.0000
 27 H      0.9895     1.0000     0.0105     0.9907     0.9907    -0.0000
 28 C      5.9949     6.0000     0.0051     3.8526     3.8526    -0.0000
 29 H      1.0011     1.0000    -0.0011     0.9908     0.9908     0.0000
 30 C      5.9924     6.0000     0.0076     3.8218     3.8218    -0.0000
 31 H      1.0024     1.0000    -0.0024     0.9784     0.9784    -0.0000
 32 H      0.9997     1.0000     0.0003     0.9786     0.9786    -0.0000
 33 H      1.0001     1.0000    -0.0001     0.9785     0.9785    -0.0000

  Mayer bond orders larger than 0.100000
B(  0-P ,  1-C ) :   0.9371 B(  0-P , 12-C ) :   0.9374 B(  0-P , 23-C ) :   0.9372 
B(  1-C ,  2-C ) :   1.3823 B(  1-C ,  3-C ) :   1.3626 B(  2-C ,  4-C ) :   1.3799 
B(  2-C ,  5-H ) :   0.9711 B(  3-C ,  6-C ) :   1.4030 B(  3-C ,  7-H ) :   0.9746 
B(  4-C ,  8-C ) :   1.3786 B(  4-C ,  9-H ) :   0.9779 B(  6-C ,  8-C ) :   1.3726 
B(  6-C , 10-H ) :   0.9791 B(  8-C , 11-H ) :   0.9786 B( 12-C , 13-C ) :   1.3630 
B( 12-C , 14-C ) :   1.3818 B( 13-C , 15-C ) :   1.4026 B( 13-C , 16-H ) :   0.9746 
B( 14-C , 17-C ) :   1.3801 B( 14-C , 18-H ) :   0.9712 B( 15-C , 19-C ) :   1.3729 
B( 15-C , 20-H ) :   0.9791 B( 17-C , 19-C ) :   1.3784 B( 17-C , 21-H ) :   0.9779 
B( 19-C , 22-H ) :   0.9786 B( 23-C , 24-C ) :   1.3821 B( 23-C , 25-C ) :   1.3627 
B( 24-C , 26-C ) :   1.3800 B( 24-C , 27-H ) :   0.9712 B( 25-C , 28-C ) :   1.4028 
B( 25-C , 29-H ) :   0.9746 B( 26-C , 30-C ) :   1.3785 B( 26-C , 31-H ) :   0.9779 
B( 28-C , 30-C ) :   1.3727 B( 28-C , 32-H ) :   0.9791 B( 30-C , 33-H ) :   0.9786 


-------
TIMINGS
-------

Total SCF time: 0 days 0 hours 0 min 53 sec 

Total time                  ....      53.505 sec
Sum of individual times     ....      50.931 sec  ( 95.2%)

SCF preparation             ....       0.096 sec  (  0.2%)
Fock matrix formation       ....      50.386 sec  ( 94.2%)
  Startup                   ....       0.006 sec  (  0.0% of F)
  Split-RI-J                ....      16.303 sec  ( 32.4% of F)
  XC integration            ....      36.349 sec  ( 72.1% of F)
    XC Preparation          ....       0.000 sec  (  0.0% of XC)
    Basis function eval.    ....      12.540 sec  ( 34.5% of XC)
    Density eval.           ....       9.776 sec  ( 26.9% of XC)
    XC-Functional eval.     ....       1.761 sec  (  4.8% of XC)
    XC-Potential eval.      ....      11.287 sec  ( 31.1% of XC)
Diagonalization             ....       0.000 sec  (  0.0%)
Density matrix formation    ....       0.054 sec  (  0.1%)
Total Energy calculation    ....       0.011 sec  (  0.0%)
Population analysis         ....       0.020 sec  (  0.0%)
Orbital Transformation      ....       0.031 sec  (  0.1%)
Orbital Orthonormalization  ....       0.000 sec  (  0.0%)
DIIS solution               ....       0.171 sec  (  0.3%)
SOSCF solution              ....       0.162 sec  (  0.3%)
Finished LeanSCF after  53.5 sec

Maximum memory used throughout the entire LEANSCF-calculation: 68.3 MB

-------------------------   --------------------
FINAL SINGLE POINT ENERGY     -1035.725629100780
-------------------------   --------------------


------------------------------------------------------------------------------
                              ORCA PROPERTY CALCULATIONS
------------------------------------------------------------------------------

GBWName                                 ... TPhP_def2svp.gbw
Number of atoms                         ...     34
Number of basis functions               ...    345
Max core memory                         ...   4096 MB

Electric properties:
Dipole moment                           ... YES
Quadrupole moment                       ...  NO
Static polarizability (Dipole/Dipole)   ...  NO
Static polarizability (Dipole/Quad.)    ...  NO
Static polarizability (Quad./Quad.)     ...  NO
Static polarizability (Velocity)        ...  NO
Static hyperpolarizability              ...  NO

Atomic electric properties:
Dipole moment                           ...  NO
Quadrupole moment                       ...  NO
Static polarizability                   ...  NO

Choice of electric origin               ... Center of mass
Position of electric origin             ...    -6.584017     2.541787    -0.157538

General magnetic properties:
Magnetizability                         ...  NO

EPR properties:
g-Tensor (aka g-matrix)                 ...  NO
Zero-Field splitting spin-orbit         ...  NO
Zero-field splitting spin-spin          ...  NO
Hyperfine couplings                     ...  NO (   0 nuclei)
Quadrupole couplings                    ...  NO (   0 nuclei)
Contact density                         ...  NO (   0 nuclei)

NMR properties:
Chemical shifts                         ...  NO (   0 nuclei)
Spin-rotation constants                 ...  NO (   0 nuclei)
Spin-spin couplings                     ...  NO (   0 nuclei,    0 pairs)

Choice of magnetic origin               ... GIAO
Position of magnetic origin             ...     0.000000     0.000000     0.000000

Properties with geometric perturbations:
SCF Hessian                             ...  NO
IR spectrum                             ...  NO
VCD spectrum                            ...  NO
X-ray spectroscopy properties:
SCF XES/XAS/RIXS spectra                ...  NO

SCF SOC stabilization energy            ...  NO
Diagonal Born-Oppenheimer correction    ...  NO

-------------
DIPOLE MOMENT
-------------

Method             : SCF
Type of density    : Electron Density
Multiplicity       :   1
Irrep              :   0
Energy             : -1035.7256291007797699 Eh
Basis              : AO
                                X                 Y                 Z
Electronic contribution:      5.609766772      -0.353391876      -0.273810557
Nuclear contribution   :     -6.151975158       0.387476880       0.301799542
                        -----------------------------------------
Total Dipole Moment    :     -0.542208386       0.034085004       0.027988985
                        -----------------------------------------
Magnitude (a.u.)       :      0.543999177
Magnitude (Debye)      :      1.382736020



--------------------
Rotational spectrum 
--------------------
 
Rotational constants in cm-1:             0.011984             0.011977             0.007129 
Rotational constants in MHz :           359.284006           359.071105           213.720295 

Dipole components along the rotational axes: 
x,y,z [a.u.] :    -0.000722    -0.000890     0.543998 
x,y,z [Debye]:    -0.001835    -0.002263     1.382733 

 

Dipole moment calculation done in   0.0 sec 

Maximum memory used throughout the entire PROP-calculation: 27.9 MB

--------------------------------
SUGGESTED CITATIONS FOR THIS RUN
--------------------------------

Below you find a list of papers that are relevant to this ORCA run
We neither can nor want to force you to cite these papers, but we appreciate if you do
You receive ORCA, which is the product of decades of hard work by many enthusiastic individuals, for free
The only thing we kindly ask in return is that you cite our papers,
We deeply appreciate it, if you show your appreciation for ORCA by not just citing the generic ORCA reference.

Please note that relegating all ORCA citations to the supporting information does *not* help us.
SI sections are not indexed - citations you put there will not count into any citation statistics
But we need these citations in order to attract the funding resources that allow us to do what we are doing

Therefore, if you are a happy ORCA user, please consider citing a few of the papers listed below in the main body of your paper

In addition to the list printed below, the program has created the file TPhP_def2svp.bibtex that contains the list in bibtex format
You can import this file easily into all common literature databanks and citation aid programs

It goes without saying that in many instances, there are alternative algorithms to achieve similar
results as the ones you have gotten from ORCA. It is, of course, also the case that in some instances
ORCA just re-implements algorithms worked out by others. We are fully aware of that and we are also
fully appreciative of our colleagues work. Hence this citation list should not be read as indicating
that the listed papers, which are focused on our own work, are the only ones worth citing. It simply
meant to make it easier for users to cite ORCA specific papers. It is not a substitute for doing your
own literature research and citing the relevant literature in a scientifically appropriate manner.

List of essential papers. We consider these as the minimum necessary citations

  1. Neese, F.
     Software update: the ORCA program system, version 6.0
     WIRES Comput. Molec. Sci. 2025 15(1), e70019
     doi.org/10.1002/wcms.70019

List of papers to cite with high priority. The work reported in these papers was absolutely
necessary for this run to complete.
Our perspective: the developers of density functionals and basis sets usually get cited in chemistry papers
Good! But without the algorithms to do something with them, the functionals or basis sets would not do anything.
Hence, in our opinion, the algorithm design and method developments papers are equally worthy of getting cited

  1. Neese, F.
     An improvement of the resolution of the identity approximation for the formation of the Coulomb matrix
     J. Comp. Chem. 2003 24(14), 1740-1747
     doi.org/10.1002/jcc.10318
  2. Neese, F.
     The SHARK Integral Generation and Digestion System
     J. Comp. Chem. 2022 44(3), 381
     doi.org/10.1002/jcc.26942

List of suggested additional citations. These are papers that are important in the 'surrounding' of 
of this run, or papers that preceded the highly important papers. If you like your results we are grateful for a citation.

  1. Neese, F.
     The ORCA program system
     WIRES Comput. Molec. Sci. 2012 2(1), 73-78
     doi.org/10.1002/wcms.81
  2. Neese, F.
     Software update: the ORCA program system, version 4.0
     WIRES Comput. Molec. Sci. 2018 8(1), 1-6
     doi.org/10.1002/wcms.1327
  3. Neese, F.; Wennmohs, F.; Becker, U.; Riplinger, C.
     The ORCA quantum chemistry program package
     J. Chem. Phys. 2020 152(22), 224108
     doi.org/10.1063/5.0004608
  4. Neese, F.
     Software update: The ORCA program system—Version 5.0
     WIRES Comput. Molec. Sci. 2022 12(1), e1606
     doi.org/10.1002/wcms.1606

List of optional additional citations

  1. Neese, F.
     Approximate second-order SCF convergence for spin unrestricted wavefunctions
     Chem. Phys. Lett. 2000 325(1-3), 93-98
     doi.org/10.1016/s0009-2614(00)00662-x

Timings for individual modules:

Sum of individual times          ...       61.109 sec (=   1.018 min)
Startup calculation              ...        5.766 sec (=   0.096 min)   9.4 %
SCF iterations                   ...       55.224 sec (=   0.920 min)  90.4 %
Property calculations            ...        0.119 sec (=   0.002 min)   0.2 %
                             ****ORCA TERMINATED NORMALLY****
TOTAL RUN TIME: 0 days 0 hours 1 minutes 2 seconds 167 msec
