
                                 *****************
                                 * O   R   C   A *
                                 *****************

                                            #,                                       
                                            ###                                      
                                            ####                                     
                                            #####                                    
                                            ######                                   
                                           ########,                                 
                                     ,,################,,,,,                         
                               ,,#################################,,                 
                          ,,##########################################,,             
                       ,#########################################, ''#####,          
                    ,#############################################,,   '####,        
                  ,##################################################,,,,####,       
                ,###########''''           ''''###############################       
              ,#####''   ,,,,##########,,,,          '''####'''          '####       
            ,##' ,,,,###########################,,,                        '##       
           ' ,,###''''                  '''############,,,                           
         ,,##''                                '''############,,,,        ,,,,,,###''
      ,#''                                            '''#######################'''  
     '                                                          ''''####''''         
             ,#######,   #######,   ,#######,      ##                                
            ,#'     '#,  ##    ##  ,#'     '#,    #''#        ,####,    ,#,          
            ##       ##  ##   ,#'  ##            #'  '#       #'       ,# #          
            ##       ##  #######   ##           ,######,      #####,      #          
            '#,     ,#'  ##    ##  '#,     ,#' ,#      #,     #,   #      #          
             '#######'   ##     ##  '#######'  #'      '#     '####' #    #          



                #########################################################
                #                        -***-                          #
                #          Department of theory and spectroscopy        #
                #                                                       #
                #                      Frank Neese                      #
                #                                                       #
                #     Directorship, Architecture, Infrastructure        #
                #                    SHARK, DRIVERS                     #
                #        Core code/Algorithms in most modules           #
                #                                                       #
                #        Max Planck Institute fuer Kohlenforschung      #
                #                Kaiser Wilhelm Platz 1                 #
                #                 D-45470 Muelheim/Ruhr                 #
                #                      Germany                          #
                #                                                       #
                #                  All rights reserved                  #
                #                        -***-                          #
                #########################################################


                         Program Version 6.1.1  -  RELEASE   -
                                (GIT: $487d211c$)
                          ($2025-11-21 10:33:24 +0100$)


 With contributions from (in alphabetic order):
[Max-Planck-Institut fuer Kohlenforschung]                               
  Daniel Aravena         : Magnetic Suceptibility                        
  Michael Atanasov       : Ab Initio Ligand Field Theory (pilot matlab implementation)
  Alexander A. Auer      : GIAO ZORA, VPT2 properties, NMR spectrum      
  Ute Becker             : All parallelization in ORCA, NUMFREQ, NUMCALC 
  Giovanni Bistoni       : ED, misc. LED, open-shell LED, HFLD           
  Dmytro Bykov           : pre 5.0 version of the SCF Hessian            
  Marcos Casanova-Páez   : Triplet and SCS-CIS(D). UHF-(DLPNO)-IP/EA/STEOM-CCSD. UHF-CVS-IP/STEOM-CCSD   
  Vijay G. Chilkuri      : MRCI spin determinant printing, contributions to CSF-ICE 
  Pauline Colinet        : FMM embedding                                 
  Dipayan Datta          : RHF DLPNO-CCSD density                        
  Achintya Kumar Dutta   : EOM-CC, STEOM-CC                              
  Nicolas Foglia         : Exact transition moments, OPA infrastructure, MCD improvements    
  Dmitry Ganyushin       : Spin-Orbit,Spin-Spin,Magnetic field MRCI      
  Miquel Garcia-Rates    : C-PCM and meta-GGA Hessian, CCSD/C-PCM, Gaussian charge scheme 
  Tiago L. C. Gouveia    : GS-ROHF, GS-ROCIS                             
  Yang Guo               : DLPNO-NEVPT2, F12-NEVPT2, CIM, IAO-localization        
  Andreas Hansen         : Spin unrestricted coupled pair/coupled cluster methods 
  Ingolf Harden          : AUTO-CI MPn and infrastructure                
  Benjamin Helmich-Paris : MC-RPA, TRAH-(SCF,CASSCF), AVAS, COSX integrals, SCF dyn. polar., MC-PDFT, srDFT 
  Lee Huntington         : MR-EOM, pCC                                   
  Robert Izsak           : Overlap fitted RIJCOSX, COSX-SCS-MP3, EOM     
  Riya Kayal             : Wick's Theorem for AUTO-CI, AUTO-CI UHF-CCSDT 
  Emily Kempfer          : AUTO-CI RHF CISDT and CCSDT, approximate NEVPT4
  Christian Kollmar      : KDIIS, OOCD, Brueckner-CCSD(T), CCSD density, CASPT2, CASPT2-K, improved NEVPT2 
  Axel Koslowski         : Symmetry handling                             
  Simone Kossmann        : meta-GGA functionals, TD-DFT gradient, OOMP2, (MP2 Hessian; deprecated post 5.0) 
  Lucas Lang             : DCDCAS, Hyperfine gauge corrections, ICE-SOC+SSC
  Marvin Lechner         : AUTO-CI (C++ implementation), FIC-MRCC        
  Spencer Leger          : CASSCF response                               
  Dagmar Lenk            : GEPOL surface, SMD, ORCA-2-JSON               
  Dimitrios Liakos       : Extrapolation schemes; Compound Job, Property file
  Dimitrios Manganas     : Further ROCIS development; embedding schemes. LFT, Crystal Embedding 
  Dimitrios Pantazis     : SARC Basis sets                               
  Anastasios Papadopoulos: AUTO-CI, single reference methods and gradients 
  Taras Petrenko         : pre 6.0 DFT Hessian and TD-DFT gradient,  ECA, NRVS 
  Petra Pikulova         : Analytic Raman intensities                    
  Peter Pinski           : DLPNO-MP2, DLPNO-MP2 Gradient                 
  Shashank Vittal Rao    : ES-AILFT, MagRelax                            
  Christoph Reimann      : Effective Core Potentials                     
  Marius Retegan         : Local ZFS, SOC                                
  Christoph Riplinger    : Optimizer, TS searches, QM/MM, DLPNO-CCSD(T), (RO)-DLPNO pert. Triples 
  Michael Roemelt        : Original ROCIS implementation, recursive CI coupling coefficients
  Masaaki Saitow         : Open-shell DLPNO-CCSD energy and density      
  Barbara Sandhoefer     : DKH picture change effects                    
  Yorick L. A. Schmerwitz: GMF and freeze-and-release deltaSCF, NEB S-IDPP initial path                    
  Kantharuban Sivalingam : CASSCF convergence/infrastructure, NEVPT2, NEVPT3, NEVPT4(SD), FIC-MRCI and CEPA variants
  Bernardo de Souza      : ESD, SOC TD-DFT                               
  Georgi L. Stoychev     : AutoAux, RI-MP2 NMR, DLPNO-MP2 response, X2C  
  Van Anh Tran           : RI-MP2 g-tensors                              
  Willem Van den Heuvel  : Paramagnetic NMR                              
  Zikuan Wang            : NOTCH, Electric field optimization            
  Frank Wennmohs         : Technical directorship and infrastructure     
  Hang Xu                : AUTO-CI-Response properties                   
                                                                         
[FACCTs GmbH]                                                            
  Markus Bursch, Nicolas Foglia, Miquel Garcia-Rates, Ingolf Harden, Hagen Neugebauer, Anastasios Papadopoulos, 
  Christoph Riplinger, Bernardo de Souza, Georgi L. Stoychev                                                    
                                                                 
  APM, various basis sets, CI-OPT, improved COSX, DLPNO-Multilevel,           
  DOCKER, DRACO, updates on ESD, Fragmentator, GOAT, IRC, LR-CPCM, L-BFGS, MBIS, meta-GGA TD-DFT gradient, ML-optimized integration grids, 
  MM, NACMEs, nearIR, NEB, NEB-TS, NL-DFT gradient (VV10), 2- and 3-layer-ONIOM, interface openCOSMO-RS, QMMM,   
  Crystal-QMMM, RESP, rigid body optimization, SF, symmetry and pop. for TD-DFT, various functionals, SOLVATOR                                   
                                                                         
[Other institutions]                                                     
  V. Asgeirsson          : NEB                                           
  Christoph Bannwarth    : sTDA-DFT, sTD-DFT, PBEh-3c, B97-3c, D3        
  Giovanni Bistoni       : ETS/NOCV, ADLD/ADEX, COVALED                  
  Martin Brehm           : Molecular dynamics                            
  Ronald Cardenas        : ETS/NOCV                                      
  Martina Colucci        : COVALED                                       
  Sebastian Ehlert       : rSCAN, r2SCAN, r2SCAN-3c, D4, dhf basis sets  
  Marvin Friede          : D4 for Fr, Ra, Ac-Lr                          
  Lars Goerigk           : TD-DFT with DH, B97 family of functionals     
  Stefan Grimme          : VdW corrections, initial TS optimization, DFT functionals, gCP, sTDA/sTD-DF 
  Waldemar Hujo          : DFT-NL                                        
  H. Jonsson             : NEB                                           
  Holger Kruse           : gCP                                           
  Marcel Mueller         : wB97X-3c, vDZP basis set                      
  Hagen Neugebauer       : wr2SCAN, Native XTB                           
  Gianluca Regni         : ADLD/ADEX                                     
  Tobias Risthaus        : pre 6.0 range-separated hybrid DFT and stability analysis
  Lukas Wittmann         : regularized MP2, r2SCAN double-hybrids, wr2SCAN        
                                                                         
We gratefully acknowledge several colleagues who have allowed us to      
interface, adapt or use parts of their codes:                            
  Ed Valeev, F. Pavosevic, A. Kumar             : LibInt (2-el integral package), F12 methods 
  Garnet Chan, S. Sharma, J. Yang, R. Olivares  : DMRG                   
  Ulf Ekstrom                                   : XCFun DFT Library      
  Mihaly Kallay                                 : mrcc  (arbitrary order and MRCC methods)
  Frank Weinhold                                : gennbo (NPA and NBO analysis)           
  Simon Mueller                                 : openCOSMO-RS                            
  Christopher J. Cramer and Donald G. Truhlar   : smd solvation model                     
  S Lehtola, MJT Oliveira, MAL Marques          : LibXC Library                           
  Liviu Ungur et al                             : ANISO software                          


 Your calculation uses the libint2 library for the computation of 2-el integrals
 For citations please refer to: http://libint.valeyev.net

 Your ORCA version has been built with support for libXC version: 7.0.0
 For citations please refer to: https://libxc.gitlab.io

 This ORCA versions uses:
   CBLAS   interface :  Fast vector & matrix operations
   LAPACKE interface :  Fast linear algebra routines
   SCALAPACK package :  Parallel linear algebra routines
   Shared memory     :  Shared parallel matrices
   BLAS/LAPACK       :  OpenBLAS 0.3.29  USE64BITINT DYNAMIC_ARCH NO_AFFINITY Cooperlake SINGLE_THREADED
        Core in use  :  Cooperlake
   Copyright (c) 2011-2014, The OpenBLAS Project


  ***********************************
  * Starting time: Mon Jul 13 23:25:49 2026
  * Host name:     c1-36
  * Process ID:    353583
  * Working dir.:  /cluster/projects/nn14654k/ylvaos/TPhP_bsse/orca/opt1_bp86
  ***********************************

Warning: RI is on but no J-basis has been assigned. Assigning Def2/J (nothing to worry about!)
================================================================================

----- Orbital basis set information -----
Your calculation utilizes the basis: def2-TZVP
   F. Weigend and R. Ahlrichs, Phys. Chem. Chem. Phys. 7, 3297 (2005).

----- AuxJ basis set information -----
Your calculation utilizes the auxiliary basis: def2/J
   H-Rn: F. Weigend, Phys. Chem. Chem. Phys. 8, 1057 (2006).
   Fr-Lr: K. Eichkorn, F. Weigend, O. Treutler, R. Ahlrichs; Theor. Chem. Acc. 97, 119 (1997).

================================================================================
                                        WARNINGS
                       Please study these warnings very carefully!
================================================================================


================================================================================
                                       INPUT FILE
================================================================================
NAME = TPhP_def2tzvp.inp
|  1> ! BP86 def2-TZVP VeryTightSCF defgrid3
|  2> 
|  3> *xyz 0 1
|  4>   P          -2.23335238093662      1.26630433347071     -0.14480736191397
|  5>   C          -3.17354547274218      0.72788610800673     -1.63155613349146
|  6>   C          -4.28235759336237      1.40717707649288     -2.15045519705861
|  7>   C          -2.73533013438309     -0.44181045522253     -2.26970052358871
|  8>   C          -4.94447517206266      0.92004585122523     -3.27991243911499
|  9>   H          -4.63440068945354      2.32322239218967     -1.66935535768693
| 10>   C          -3.40313608738305     -0.93575156669368     -3.38971659043926
| 11>   H          -1.85953273973757     -0.97189774365071     -1.88082797148354
| 12>   C          -4.51012188792971     -0.25271226540692     -3.89895974422482
| 13>   H          -5.80850130605865      1.46128894527484     -3.67670770012163
| 14>   H          -3.05263879810440     -1.85226310206907     -3.87328192982297
| 15>   H          -5.03115567518013     -0.63301852663098     -4.78245215059272
| 16>   C          -3.06258435584142      0.29002820368579      1.17557488356205
| 17>   C          -2.45303500430232      0.28612967584872      2.43876771877009
| 18>   C          -4.24743775455895     -0.43332730577243      0.99344205875477
| 19>   C          -3.02560886338018     -0.40748317311214      3.50440877873836
| 20>   H          -1.51776519339383      0.83608796672730      2.58720048186482
| 21>   C          -4.81518090324435     -1.13873702091007      2.05706177221231
| 22>   H          -4.73300520317328     -0.44601805176046      0.01434839075353
| 23>   C          -4.20924153423702     -1.12434765096751      3.31407154114513
| 24>   H          -2.54121823481779     -0.39667815739587      4.48517953566244
| 25>   H          -5.74019441814209     -1.70178373198931      1.90131392362402
| 26>   H          -4.65656149661553     -1.67635964454681      4.14585572581564
| 27>   C          -2.94688510900037      2.93713346247516      0.14371531660582
| 28>   C          -4.01602279605028      3.19795402611964      1.00919725674912
| 29>   C          -2.36889206975656      4.00352808041267     -0.56062981482029
| 30>   C          -4.50260007586930      4.49876401564898      1.15911926566048
| 31>   H          -4.47491653638971      2.37998138978868      1.57033599857938
| 32>   C          -2.86190131625911      5.30041108367437     -0.42119469220601
| 33>   H          -1.52205306183268      3.81224492962065     -1.22809321026049
| 34>   C          -3.93077429255410      5.55082897439999      0.44254527617237
| 35>   H          -5.33731930768447      4.68970624672592      1.84008686276579
| 36>   H          -2.40405926124844      6.12091337191859     -0.98139595205205
| 37>   H          -4.31454327431425      6.56841726242196      0.56048098144235
| 38> *
| 39> 
| 40>                          ****END OF INPUT****
================================================================================

                       ****************************
                       * Single Point Calculation *
                       ****************************

---------------------------------
CARTESIAN COORDINATES (ANGSTROEM)
---------------------------------
  P     -2.233352    1.266304   -0.144807
  C     -3.173545    0.727886   -1.631556
  C     -4.282358    1.407177   -2.150455
  C     -2.735330   -0.441810   -2.269701
  C     -4.944475    0.920046   -3.279912
  H     -4.634401    2.323222   -1.669355
  C     -3.403136   -0.935752   -3.389717
  H     -1.859533   -0.971898   -1.880828
  C     -4.510122   -0.252712   -3.898960
  H     -5.808501    1.461289   -3.676708
  H     -3.052639   -1.852263   -3.873282
  H     -5.031156   -0.633019   -4.782452
  C     -3.062584    0.290028    1.175575
  C     -2.453035    0.286130    2.438768
  C     -4.247438   -0.433327    0.993442
  C     -3.025609   -0.407483    3.504409
  H     -1.517765    0.836088    2.587200
  C     -4.815181   -1.138737    2.057062
  H     -4.733005   -0.446018    0.014348
  C     -4.209242   -1.124348    3.314072
  H     -2.541218   -0.396678    4.485180
  H     -5.740194   -1.701784    1.901314
  H     -4.656561   -1.676360    4.145856
  C     -2.946885    2.937133    0.143715
  C     -4.016023    3.197954    1.009197
  C     -2.368892    4.003528   -0.560630
  C     -4.502600    4.498764    1.159119
  H     -4.474917    2.379981    1.570336
  C     -2.861901    5.300411   -0.421195
  H     -1.522053    3.812245   -1.228093
  C     -3.930774    5.550829    0.442545
  H     -5.337319    4.689706    1.840087
  H     -2.404059    6.120913   -0.981396
  H     -4.314543    6.568417    0.560481

----------------------------
CARTESIAN COORDINATES (A.U.)
----------------------------
  NO LB      ZA    FRAG     MASS         X           Y           Z
   0 P    15.0000    0    30.974   -4.220424    2.392968   -0.273646
   1 C     6.0000    0    12.011   -5.997132    1.375505   -3.083194
   2 C     6.0000    0    12.011   -8.092483    2.659179   -4.063771
   3 C     6.0000    0    12.011   -5.169025   -0.834901   -4.289112
   4 C     6.0000    0    12.011   -9.343704    1.738635   -6.198136
   5 H     1.0000    0     1.008   -8.757748    4.390254   -3.154624
   6 C     6.0000    0    12.011   -6.430995   -1.768314   -6.405636
   7 H     1.0000    0     1.008   -3.514008   -1.836621   -3.554250
   8 C     6.0000    0    12.011   -8.522895   -0.477557   -7.367966
   9 H     1.0000    0     1.008  -10.976477    2.761436   -6.947971
  10 H     1.0000    0     1.008   -5.768651   -3.500270   -7.319442
  11 H     1.0000    0     1.008   -9.507506   -1.196232   -9.037525
  12 C     6.0000    0    12.011   -5.787446    0.548074    2.221515
  13 C     6.0000    0    12.011   -4.635564    0.540707    4.608603
  14 C     6.0000    0    12.011   -8.026494   -0.818870    1.877333
  15 C     6.0000    0    12.011   -5.717572   -0.770032    6.622373
  16 H     1.0000    0     1.008   -2.868161    1.579977    4.889100
  17 C     6.0000    0    12.011   -9.099373   -2.151901    3.887283
  18 H     1.0000    0     1.008   -8.944084   -0.842852    0.027115
  19 C     6.0000    0    12.011   -7.954314   -2.124709    6.262688
  20 H     1.0000    0     1.008   -4.802207   -0.749613    8.475761
  21 H     1.0000    0     1.008  -10.847395   -3.215905    3.592963
  22 H     1.0000    0     1.008   -8.799626   -3.167861    7.834532
  23 C     6.0000    0    12.011   -5.568806    5.550378    0.271583
  24 C     6.0000    0    12.011   -7.589183    6.043257    1.907106
  25 C     6.0000    0    12.011   -4.476557    7.565572   -1.059437
  26 C     6.0000    0    12.011   -8.508681    8.501432    2.190418
  27 H     1.0000    0     1.008   -8.456367    4.497513    2.967505
  28 C     6.0000    0    12.011   -5.408210   10.016325   -0.795943
  29 H     1.0000    0     1.008   -2.876263    7.204099   -2.320760
  30 C     6.0000    0    12.011   -7.428087   10.489547    0.836289
  31 H     1.0000    0     1.008  -10.086072    8.862260    3.477260
  32 H     1.0000    0     1.008   -4.543014   11.566850   -1.854570
  33 H     1.0000    0     1.008   -8.153305   12.412510    1.059156

--------------------------------
INTERNAL COORDINATES (ANGSTROEM)
--------------------------------
 P      0   0   0     0.000000000000     0.00000000     0.00000000
 C      1   0   0     1.839641037044     0.00000000     0.00000000
 C      2   1   0     1.400055990620   124.21412724     0.00000000
 C      2   1   3     1.402658545554   116.87714826   180.08782352
 C      3   2   1     1.396914521468   120.38826900   180.52327461
 H      3   2   1     1.092945752249   119.90821215     0.42139684
 C      4   2   1     1.394409768492   120.74393485   178.87678042
 H      4   2   1     1.095096101537   119.46945188   358.97318579
 C      5   3   2     1.395436828211   120.27967503     0.28020945
 H      5   3   2     1.094043749693   119.67373673   180.11986949
 H      7   4   2     1.093927411541   119.89370633   180.33466917
 H      9   5   3     1.093923165443   120.14606908   179.90963701
 C      1   2   3     1.839605942576   101.20798968    94.04492081
 C     13   1   2     1.402576824777   116.87208302   169.84546877
 C     13   1   2     1.400104687296   124.21353397   349.71144499
 C     14  13   1     1.394464225799   120.74294722   178.83737795
 H     14  13   1     1.095087223039   119.46200284   358.92749575
 C     15  13   1     1.396861497768   120.38497556   180.56767528
 H     15  13   1     1.092959840483   119.90070441     0.48080184
 C     18  15  13     1.395508198497   120.27686602     0.28083370
 H     16  14  13     1.093920612769   119.89549196   180.33386995
 H     18  15  13     1.094042500975   119.67926206   180.12426381
 H     20  18  15     1.093927474591   120.14210328   179.90959331
 C      1   2   3     1.839577198263   101.20667247   350.06990150
 C     24   1   2     1.400050623729   124.21926293    93.85600271
 C     24   1   2     1.402631633304   116.86844184   273.96777545
 C     25  24   1     1.396903964792   120.38581365   180.55916818
 H     25  24   1     1.092949855342   119.90662728     0.45660229
 C     26  24   1     1.394419518905   120.74340674   178.84459228
 H     26  24   1     1.095094942629   119.46736652   358.94388076
 C     27  25  24     1.395458235243   120.27898396     0.27610742
 H     27  25  24     1.094043874750   119.67541416   180.11882110
 H     29  26  24     1.093923582287   119.89462568   180.33623389
 H     31  27  25     1.093925676570   120.14514420   179.90678468

---------------------------
INTERNAL COORDINATES (A.U.)
---------------------------
 P      0   0   0     0.000000000000     0.00000000     0.00000000
 C      1   0   0     3.476417744737     0.00000000     0.00000000
 C      2   1   0     2.645722394428   124.21412724     0.00000000
 C      2   1   3     2.650640510502   116.87714826   180.08782352
 C      3   2   1     2.639785878072   120.38826900   180.52327461
 H      3   2   1     2.065368150983   119.90821215     0.42139684
 C      4   2   1     2.635052580915   120.74393485   178.87678042
 H      4   2   1     2.069431722230   119.46945188   358.97318579
 C      5   3   2     2.636993442506   120.27967503     0.28020945
 H      5   3   2     2.067443065448   119.67373673   180.11986949
 H      7   4   2     2.067223218202   119.89370633   180.33466917
 H      9   5   3     2.067215194239   120.14606908   179.90963701
 C      1   2   3     3.476351425803   101.20798968    94.04492081
 C     13   1   2     2.650486080614   116.87208302   169.84546877
 C     13   1   2     2.645814417809   124.21353397   349.71144499
 C     14  13   1     2.635155490311   120.74294722   178.83737795
 H     14  13   1     2.069414944300   119.46200284   358.92749575
 C     15  13   1     2.639685677800   120.38497556   180.56767528
 H     15  13   1     2.065394773886   119.90070441     0.48080184
 C     18  15  13     2.637128312802   120.27686602     0.28083370
 H     16  14  13     2.067210370385   119.89549196   180.33386995
 H     18  15  13     2.067440705714   119.67926206   180.12426381
 H     20  18  15     2.067223337350   120.14210328   179.90959331
 C      1   2   3     3.476297106923   101.20667247   350.06990150
 C     24   1   2     2.645712252474   124.21926293    93.85600271
 C     24   1   2     2.650589653719   116.86844184   273.96777545
 C     25  24   1     2.639765928846   120.38581365   180.55916818
 H     25  24   1     2.065375904705   119.90662728     0.45660229
 C     26  24   1     2.635071006526   120.74340674   178.84459228
 H     26  24   1     2.069429532210   119.46736652   358.94388076
 C     27  25  24     2.637033895934   120.27898396     0.27610742
 H     27  25  24     2.067443301772   119.67541416   180.11882110
 H     29  26  24     2.067215981960   119.89462568   180.33623389
 H     31  27  25     2.067219939581   120.14514420   179.90678468

---------------------
BASIS SET INFORMATION
---------------------
There are 3 groups of distinct atoms

 Group   1 Type P   : 14s9p3d1f contracted to 5s5p2d1f pattern {73211/51111/21/1}
 Group   2 Type C   : 11s6p2d1f contracted to 5s3p2d1f pattern {62111/411/11/1}
 Group   3 Type H   : 5s1p contracted to 3s1p pattern {311/1}

Atom   0P    basis set group =>   1
Atom   1C    basis set group =>   2
Atom   2C    basis set group =>   2
Atom   3C    basis set group =>   2
Atom   4C    basis set group =>   2
Atom   5H    basis set group =>   3
Atom   6C    basis set group =>   2
Atom   7H    basis set group =>   3
Atom   8C    basis set group =>   2
Atom   9H    basis set group =>   3
Atom  10H    basis set group =>   3
Atom  11H    basis set group =>   3
Atom  12C    basis set group =>   2
Atom  13C    basis set group =>   2
Atom  14C    basis set group =>   2
Atom  15C    basis set group =>   2
Atom  16H    basis set group =>   3
Atom  17C    basis set group =>   2
Atom  18H    basis set group =>   3
Atom  19C    basis set group =>   2
Atom  20H    basis set group =>   3
Atom  21H    basis set group =>   3
Atom  22H    basis set group =>   3
Atom  23C    basis set group =>   2
Atom  24C    basis set group =>   2
Atom  25C    basis set group =>   2
Atom  26C    basis set group =>   2
Atom  27H    basis set group =>   3
Atom  28C    basis set group =>   2
Atom  29H    basis set group =>   3
Atom  30C    basis set group =>   2
Atom  31H    basis set group =>   3
Atom  32H    basis set group =>   3
Atom  33H    basis set group =>   3
---------------------------------
AUXILIARY/J BASIS SET INFORMATION
---------------------------------
There are 3 groups of distinct atoms

 Group   1 Type P   : 14s5p5d2f1g contracted to 8s4p3d1f1g pattern {71111111/2111/311/2/1}
 Group   2 Type C   : 12s5p4d2f1g contracted to 6s4p3d1f1g pattern {711111/2111/211/2/1}
 Group   3 Type H   : 5s2p1d contracted to 3s1p1d pattern {311/2/1}

Atom   0P    basis set group =>   1
Atom   1C    basis set group =>   2
Atom   2C    basis set group =>   2
Atom   3C    basis set group =>   2
Atom   4C    basis set group =>   2
Atom   5H    basis set group =>   3
Atom   6C    basis set group =>   2
Atom   7H    basis set group =>   3
Atom   8C    basis set group =>   2
Atom   9H    basis set group =>   3
Atom  10H    basis set group =>   3
Atom  11H    basis set group =>   3
Atom  12C    basis set group =>   2
Atom  13C    basis set group =>   2
Atom  14C    basis set group =>   2
Atom  15C    basis set group =>   2
Atom  16H    basis set group =>   3
Atom  17C    basis set group =>   2
Atom  18H    basis set group =>   3
Atom  19C    basis set group =>   2
Atom  20H    basis set group =>   3
Atom  21H    basis set group =>   3
Atom  22H    basis set group =>   3
Atom  23C    basis set group =>   2
Atom  24C    basis set group =>   2
Atom  25C    basis set group =>   2
Atom  26C    basis set group =>   2
Atom  27H    basis set group =>   3
Atom  28C    basis set group =>   2
Atom  29H    basis set group =>   3
Atom  30C    basis set group =>   2
Atom  31H    basis set group =>   3
Atom  32H    basis set group =>   3
Atom  33H    basis set group =>   3
------------------------------------------------------------------------------
                             ORCA STARTUP CALCULATIONS
                           -- RI-GTO INTEGRALS CHOSEN --
------------------------------------------------------------------------------
------------------------------------------------------------------------------
                   ___                                                        
                  /   \      - P O W E R E D   B Y -                         
                 /     \                                                     
                 |  |  |   _    _      __       _____    __    __             
                 |  |  |  | |  | |    /  \     |  _  \  |  |  /  |          
                  \  \/   | |  | |   /    \    | | | |  |  | /  /          
                 / \  \   | |__| |  /  /\  \   | |_| |  |  |/  /          
                |  |  |   |  __  | /  /__\  \  |    /   |      \           
                |  |  |   | |  | | |   __   |  |    \   |  |\   \          
                \     /   | |  | | |  |  |  |  | |\  \  |  | \   \       
                 \___/    |_|  |_| |__|  |__|  |_| \__\ |__|  \__/        
                                                                              
                      - O R C A' S   B I G   F R I E N D -                    
                                      &                                       
                       - I N T E G R A L  F E E D E R -                       
                                                                              
 v1 FN, 2020, v2 2021, v3 2022-2024                                           
------------------------------------------------------------------------------


----------------------
SHARK INTEGRAL PACKAGE
----------------------

Number of atoms                             ...     34
Number of basis functions                   ...    685
Number of shells                            ...    271
Maximum angular momentum                    ...      3
Integral batch strategy                     ... SHARK/LIBINT Hybrid
RI-J (if used) integral strategy            ... SPLIT-RIJ (Revised 2003 algorithm where possible)
Printlevel                                  ...      1
Contraction scheme used                     ... SEGMENTED contraction
Prescreening option                         ... SCHWARTZ
   Thresh                                   ... 1.000e-12
   Tcut                                     ... 1.000e-14
   Tpresel                                  ... 1.000e-14 
Coulomb Range Separation                    ... NOT USED
Exchange Range Separation                   ... NOT USED
Multipole approximations                    ... NOT USED
Finite Nucleus Model                        ... NOT USED
CABS basis                                  ... NOT available
Auxiliary Coulomb fitting basis             ... AVAILABLE
   # of basis functions in Aux-J            ...   1098
   # of shells in Aux-J                     ...    362
   Maximum angular momentum in Aux-J        ...      4
Auxiliary J/K fitting basis                 ... NOT available
Auxiliary Correlation fitting basis         ... NOT available
Auxiliary 'external' fitting basis          ... NOT available

Checking pre-screening integrals            ... done (  0.0 sec) Dimension = 271
   => SHARK Basis and OBASIS are compatible. Storing Pre-screening
Shell pair information
Shell pair cut-off parameter TPreSel        ...   1.0e-14
Total number of shell pairs                 ...     36856
Shell pairs after pre-screening             ...     29414
Total number of primitive shell pairs       ...    114480
Primitive shell pairs kept                  ...     62233
          la=0 lb=0:   7506 shell pairs
          la=1 lb=0:   8471 shell pairs
          la=1 lb=1:   2399 shell pairs
          la=2 lb=0:   4216 shell pairs
          la=2 lb=1:   2367 shell pairs
          la=2 lb=2:    616 shell pairs
          la=3 lb=0:   1970 shell pairs
          la=3 lb=1:   1143 shell pairs
          la=3 lb=2:    584 shell pairs
          la=3 lb=3:    142 shell pairs

Checking whether 4 symmetric matrices of dimension 685 fit in memory
:Max Core in MB      =   4096.00
 MB in use           =     39.52
 MB left             =   4056.48
 MB needed           =      7.17
 Data fit in memory  = YES
Calculating RI/J V-Matrix + Cholesky decomp.... done (  0.0 sec)
Calculating Nuclear repulsion               ... done (  0.0 sec) ENN=   1412.029176502641 Eh

Diagonalization of the overlap matrix:
Smallest eigenvalue                        ... 7.552e-06
Time for diagonalization                   ...    0.057 sec
Threshold for overlap eigenvalues          ... 1.000e-07
Number of eigenvalues below threshold      ... 0
Time for construction of square roots      ...    0.021 sec
Total time needed                          ...    0.080 sec

-------------------
DFT GRID GENERATION
-------------------

General Integration Accuracy     IntAcc      ... 4.959
Radial Grid Type                 RadialGrid  ... OptM3 with GC (2021)
Angular Grid (max. ang.)         AngularGrid ... 6 (Lebedev-590)
Angular grid pruning method      GridPruning ... 4 (adaptive)
Weight generation scheme         WeightScheme... mBecke (2022)
Basis function cutoff            BFCut       ... 1.0000e-12
Integration weight cutoff        WCut        ... 1.0000e-14
Partially contracted basis set               ... off
Rotationally invariant grid construction     ... off
Angular grids for H and He will be reduced by one unit

Total number of grid points                  ...   399810
Total number of batches                      ...     6266
Average number of points per batch           ...       63
Average number of grid points per atom       ...    11759
Grids setup in   5.4 sec
Initializing property integral containers    ... done (  0.0 sec)

SHARK setup successfully completed in   6.1 seconds

Maximum memory used throughout the entire STARTUP-calculation: 199.8 MB
-------------------------------------------------------------------------------
                                 ORCA GUESS
                   Start orbitals & Density for SCF / CASSCF
-------------------------------------------------------------------------------

------------
SCF SETTINGS
------------
Hamiltonian:
 Density Functional     Method          .... DFT(GTOs)
 Exchange Functional    Exchange        .... B88
   X-Alpha parameter    XAlpha          ....  0.666667
   Becke's b parameter  XBeta           ....  0.004200
 Correlation Functional Correlation     .... P86
 LDA part of GGA corr.  LDAOpt          .... PW91-LDA
 Gradients option       PostSCFGGA      .... off
   NL short-range parameter             ....  4.400000
 RI-approximation to the Coulomb term is turned on
   Number of AuxJ basis functions       .... 1098


General Settings:
 Integral files         IntName         .... TPhP_def2tzvp
 Hartree-Fock type      HFTyp           .... RHF
 Total Charge           Charge          ....    0
 Multiplicity           Mult            ....    1
 Number of Electrons    NEL             ....  138
 Basis Dimension        Dim             ....  685
 Nuclear Repulsion      ENuc            ....   1412.0291765026 Eh

Convergence Acceleration:
 AO-DIIS                CNVDIIS         .... on
   Start iteration      DIISMaxIt       ....    12
   Startup error        DIISStart       ....  0.200000
   # of expansion vecs  DIISMaxEq       ....     5
   Bias factor          DIISBfac        ....   1.050
   Max. coefficient     DIISMaxC        ....  10.000
 MO-DIIS                CNVKDIIS        .... off
 Trust-Rad. Augm. Hess. CNVTRAH         .... auto
   Auto Start mean grad. ratio tolernc. ....  1.125000
   Auto Start start iteration           ....    50
   Auto Start num. interpolation iter.  ....    10
   Max. Number of Micro iterations      ....    24
   Max. Number of Macro iterations      .... Maxiter - #DIIS iter
   Number of Davidson start vectors     ....     2
   Converg. threshold    (grad. norm)   ....   2.000e-06
   Grad. Scal. Fac. for Micro threshold ....   0.100
   Minimum threshold for Micro iter.    ....   1.000e-02
   NR start threshold (gradient norm)   ....   1.000e-04
   Initial trust radius                 ....   0.400
   Minimum AH scaling param. (alpha)    ....   1.000
   Maximum AH scaling param. (alpha)    .... 1000.000
   Quad. conv. algorithm                .... NR
   White noise on init. David. guess    .... on
   Maximum white noise                  ....   0.010
   Pseudo random numbers                .... off
   Inactive MOs                         .... canonical
   Orbital update algorithm             .... Taylor
   Preconditioner                       .... Diag
   Full preconditioner red. dimension   ....   250
 SOSCF                 CNVSOSCF           .... on
   Start iteration     SOSCFMaxIt         ....   150
   Startup grad/error  SOSCFStart         ....  0.003300
   Hessian update      SOSCFHessUp        .... L-BFGS
   Autom. constraints  SOSCFAutoConstrain .... off
 Level Shifting         CNVShift        .... on
   Level shift para.    LevelShift      ....    0.2500
   Turn off err/grad.   ShiftErr        ....    0.0010
 Zerner damping         CNVZerner       .... off
 Static damping         CNVDamp         .... on
   Fraction old density DampFac         ....    0.7000
   Max. Damping (<1)    DampMax         ....    0.9800
   Min. Damping (>=0)   DampMin         ....    0.0000
   Turn off err/grad.   DampErr         ....    0.1000

SCF Procedure:
 Maximum # iterations   MaxIter         ....   125
 SCF integral mode      SCFMode         .... Direct
   Integral package                     .... SHARK and LIBINT hybrid scheme
 Reset frequency        DirectResetFreq ....    20
 Integral Threshold     Thresh          ....  1.000e-12 Eh
 Primitive CutOff       TCut            ....  1.000e-14 Eh

Convergence Tolerance:
 Convergence Check Mode ConvCheckMode   .... Total+1el-Energy
 Convergence forced     ConvForced      .... 0
 Energy Change          TolE            ....  1.000e-09 Eh
 1-El. energy change                    ....  1.000e-06 Eh
 Orbital Gradient       TolG            ....  2.000e-06
 Orbital Rotation angle TolX            ....  2.000e-06
 DIIS Error             TolErr          ....  1.000e-08

------------------------------
INITIAL GUESS: MODEL POTENTIAL
------------------------------
Loading Hartree-Fock densities                     ... done
Calculating cut-offs                               ... done
Initializing the effective Hamiltonian             ... done
Setting up the integral package (SHARK)            ... done
Starting the Coulomb interaction                   ... done (   1.5 sec)
Making the grid                                    ... done (   0.5 sec)
Mapping shells                                     ... done
Starting the XC term evaluation                    ... done (   1.3 sec)
  promolecular density results
     # of electrons  =    137.993243319
     EX              =   -119.597373089
     EC              =     -5.098834120
     EX+EC           =   -124.696207209
Transforming the Hamiltonian                       ... done (   0.0 sec)
Diagonalizing the Hamiltonian                      ... done (   0.1 sec)
Back transforming the eigenvectors                 ... done (   0.0 sec)
Now organizing SCF variables                       ... done
                      ------------------
                      INITIAL GUESS DONE (   3.4 sec)
                      ------------------
             **** ENERGY FILE WAS UPDATED (TPhP_def2tzvp.en.tmp) ****
Finished Guess after   3.5 sec
Maximum memory used throughout the entire GUESS-calculation: 98.6 MB

-------------------------------------------------------------------------------------------
                                      ORCA LEAN-SCF
                              memory conserving SCF solver
-------------------------------------------------------------------------------------------

----------------------------------------D-I-I-S--------------------------------------------
Iteration    Energy (Eh)           Delta-E    RMSDP     MaxDP     DIISErr   Damp  Time(sec)
-------------------------------------------------------------------------------------------
               ***  Starting incremental Fock matrix formation  ***
    1    -1036.1950365101192801     0.00e+00  8.95e-04  2.60e-02  1.30e-01  0.700  14.0
    2    -1036.3847212820401182    -1.90e-01  7.09e-04  3.33e-02  6.15e-02  0.700  11.5
                               ***Turning on AO-DIIS***
    3    -1036.4523523561119873    -6.76e-02  4.74e-04  2.64e-02  1.93e-02  0.700  11.5
    4    -1036.4925239847325429    -4.02e-02  1.12e-03  6.25e-02  1.03e-02  0.000  10.9
    5    -1036.5831347755179195    -9.06e-02  1.33e-04  9.39e-03  5.21e-03  0.000  11.2
                              *** Initializing SOSCF ***
---------------------------------------S-O-S-C-F--------------------------------------
Iteration    Energy (Eh)           Delta-E    RMSDP     MaxDP     MaxGrad    Time(sec)
--------------------------------------------------------------------------------------
    6    -1036.5839532235527258    -8.18e-04  7.71e-05  3.33e-03  9.56e-04    10.5
               *** Restarting incremental Fock matrix formation ***
    7    -1036.5839956372542474    -4.24e-05  6.85e-05  2.60e-03  2.44e-04    13.2
    8    -1036.5839822377038217     1.34e-05  3.26e-05  1.28e-03  6.77e-04     9.3
    9    -1036.5840007808928931    -1.85e-05  3.46e-05  1.28e-03  1.19e-04     8.8
   10    -1036.5839998078404278     9.73e-07  1.13e-05  4.18e-04  1.45e-04     8.9
   11    -1036.5840018535704985    -2.05e-06  1.05e-05  4.07e-04  3.08e-05     8.1
   12    -1036.5840017054238160     1.48e-07  5.65e-06  2.38e-04  5.79e-05     8.4
   13    -1036.5840019406919055    -2.35e-07  3.03e-06  1.27e-04  1.47e-05     7.9
   14    -1036.5840018994404090     4.13e-08  2.25e-06  8.57e-05  1.94e-05     7.6
   15    -1036.5840019551833393    -5.57e-08  3.24e-07  1.51e-05  1.96e-06     7.4
   16    -1036.5840019555471372    -3.64e-10  1.45e-07  7.30e-06  2.77e-06     7.1
                 **** Energy Check signals convergence ****

               *****************************************************
               *                     SUCCESS                       *
               *           SCF CONVERGED AFTER  16 CYCLES          *
               *****************************************************

             **** ENERGY FILE WAS UPDATED (TPhP_def2tzvp.en.tmp) ****

----------------
TOTAL SCF ENERGY
----------------

Total Energy       :      -1036.58400195548029 Eh          -28206.88470 eV

Components:
Nuclear Repulsion  :       1412.02917650264135 Eh           38423.26729 eV
Electronic Energy  :      -2448.61317845812164 Eh          -66630.15200 eV
One Electron Energy:      -4216.49402899873348 Eh         -114736.63563 eV
Two Electron Energy:       1767.88085054061185 Eh           48106.48363 eV

Virial components:
Potential Energy   :      -2069.04799500716035 Eh          -56301.65827 eV
Kinetic Energy     :       1032.46399305167984 Eh           28094.77356 eV
Virial Ratio       :          2.00399046255514

DFT components:
N(Alpha)           :       68.999998323811 electrons
N(Beta)            :       68.999998323811 electrons
N(Total)           :      137.999996647622 electrons
E(X)               :     -121.570499555908 Eh       
E(C)               :       -5.091358332025 Eh       
E(XC)              :     -126.661857887933 Eh       

---------------
SCF CONVERGENCE
---------------

  Last Energy change         ...    3.6380e-10  Tolerance :   1.0000e-09
  Last MAX-Density change    ...    7.3044e-06  Tolerance :   1.0000e-08
  Last RMS-Density change    ...    1.4468e-07  Tolerance :   1.0000e-09
  Last DIIS Error            ...    9.5599e-04  Tolerance :   1.0000e-08
  Last Orbital Gradient      ...    2.7732e-06  Tolerance :   2.0000e-06
  Last Orbital Rotation      ...    7.9082e-06  Tolerance :   2.0000e-06


----------------
ORBITAL ENERGIES
----------------

  NO   OCC          E(Eh)            E(eV) 
   0   2.0000     -76.343046     -2077.3999 
   1   2.0000      -9.911908      -269.7167 
   2   2.0000      -9.911905      -269.7166 
   3   2.0000      -9.911894      -269.7164 
   4   2.0000      -9.906734      -269.5759 
   5   2.0000      -9.906726      -269.5757 
   6   2.0000      -9.906700      -269.5750 
   7   2.0000      -9.906417      -269.5673 
   8   2.0000      -9.906399      -269.5668 
   9   2.0000      -9.906365      -269.5659 
  10   2.0000      -9.905992      -269.5558 
  11   2.0000      -9.905982      -269.5555 
  12   2.0000      -9.905954      -269.5547 
  13   2.0000      -9.905686      -269.5474 
  14   2.0000      -9.905670      -269.5470 
  15   2.0000      -9.905638      -269.5461 
  16   2.0000      -9.904935      -269.5270 
  17   2.0000      -9.904917      -269.5265 
  18   2.0000      -9.904884      -269.5256 
  19   2.0000      -6.303585      -171.5293 
  20   2.0000      -4.519365      -122.9782 
  21   2.0000      -4.519363      -122.9781 
  22   2.0000      -4.516513      -122.9006 
  23   2.0000      -0.790746       -21.5173 
  24   2.0000      -0.782885       -21.3034 
  25   2.0000      -0.782856       -21.3026 
  26   2.0000      -0.706977       -19.2378 
  27   2.0000      -0.682759       -18.5788 
  28   2.0000      -0.682748       -18.5785 
  29   2.0000      -0.681397       -18.5417 
  30   2.0000      -0.676966       -18.4212 
  31   2.0000      -0.676954       -18.4209 
  32   2.0000      -0.591915       -16.1068 
  33   2.0000      -0.552794       -15.0423 
  34   2.0000      -0.552774       -15.0417 
  35   2.0000      -0.551126       -14.9969 
  36   2.0000      -0.540945       -14.7199 
  37   2.0000      -0.540940       -14.7197 
  38   2.0000      -0.507276       -13.8037 
  39   2.0000      -0.471462       -12.8291 
  40   2.0000      -0.471440       -12.8285 
  41   2.0000      -0.447768       -12.1844 
  42   2.0000      -0.413064       -11.2401 
  43   2.0000      -0.413045       -11.2395 
  44   2.0000      -0.411168       -11.1884 
  45   2.0000      -0.404444       -11.0055 
  46   2.0000      -0.404438       -11.0053 
  47   2.0000      -0.397339       -10.8121 
  48   2.0000      -0.380097       -10.3430 
  49   2.0000      -0.379465       -10.3258 
  50   2.0000      -0.379444       -10.3252 
  51   2.0000      -0.367879       -10.0105 
  52   2.0000      -0.367843       -10.0095 
  53   2.0000      -0.339044        -9.2259 
  54   2.0000      -0.336000        -9.1430 
  55   2.0000      -0.335964        -9.1420 
  56   2.0000      -0.326765        -8.8917 
  57   2.0000      -0.307541        -8.3686 
  58   2.0000      -0.307521        -8.3681 
  59   2.0000      -0.306823        -8.3491 
  60   2.0000      -0.288276        -7.8444 
  61   2.0000      -0.288258        -7.8439 
  62   2.0000      -0.253364        -6.8944 
  63   2.0000      -0.241655        -6.5758 
  64   2.0000      -0.240927        -6.5560 
  65   2.0000      -0.240876        -6.5546 
  66   2.0000      -0.233931        -6.3656 
  67   2.0000      -0.233923        -6.3654 
  68   2.0000      -0.195845        -5.3292 
  69   0.0000      -0.062324        -1.6959 
  70   0.0000      -0.062274        -1.6946 
  71   0.0000      -0.060495        -1.6462 
  72   0.0000      -0.046703        -1.2709 
  73   0.0000      -0.043385        -1.1806 
  74   0.0000      -0.043337        -1.1793 
  75   0.0000       0.015900         0.4327 
  76   0.0000       0.015980         0.4348 
  77   0.0000       0.029601         0.8055 
  78   0.0000       0.043040         1.1712 
  79   0.0000       0.043061         1.1717 
*Only the first 10 virtual orbitals were printed.

                    ********************************
                    * MULLIKEN POPULATION ANALYSIS *
                    ********************************

-----------------------
MULLIKEN ATOMIC CHARGES
-----------------------
   0 P :    0.045039
   1 C :    0.018892
   2 C :   -0.128596
   3 C :   -0.132274
   4 C :   -0.146483
   5 H :    0.149058
   6 C :   -0.125487
   7 H :    0.109386
   8 C :   -0.086419
   9 H :    0.107936
  10 H :    0.108983
  11 H :    0.109827
  12 C :    0.018519
  13 C :   -0.131803
  14 C :   -0.128904
  15 C :   -0.125740
  16 H :    0.109448
  17 C :   -0.146111
  18 H :    0.149016
  19 C :   -0.086295
  20 H :    0.108994
  21 H :    0.107974
  22 H :    0.109852
  23 C :    0.018889
  24 C :   -0.128412
  25 C :   -0.132322
  26 C :   -0.146423
  27 H :    0.149099
  28 C :   -0.125512
  29 H :    0.109445
  30 C :   -0.086353
  31 H :    0.107942
  32 H :    0.108997
  33 H :    0.109838
Sum of atomic charges:   -0.0000000

--------------------------------
MULLIKEN REDUCED ORBITAL CHARGES
--------------------------------
  0 P s       :     5.681847  s :     5.681847
      pz      :     2.785366  p :     8.955605
      px      :     3.383969
      py      :     2.786270
      dz2     :     0.063214  d :     0.286765
      dxz     :     0.055605
      dyz     :     0.072069
      dx2y2   :     0.045722
      dxy     :     0.050155
      f0      :     0.004101  f :     0.030744
      f+1     :     0.005166
      f-1     :     0.003981
      f+2     :     0.004245
      f-2     :     0.006011
      f+3     :     0.004084
      f-3     :     0.003157

  1 C s       :     3.197456  s :     3.197456
      pz      :     0.912276  p :     2.660123
      px      :     0.861511
      py      :     0.886336
      dz2     :     0.023991  d :     0.115775
      dxz     :     0.020752
      dyz     :     0.019026
      dx2y2   :     0.027226
      dxy     :     0.024781
      f0      :     0.000622  f :     0.007754
      f+1     :     0.001110
      f-1     :     0.001326
      f+2     :     0.001123
      f-2     :     0.001290
      f+3     :     0.001253
      f-3     :     0.001030

  2 C s       :     3.208790  s :     3.208790
      pz      :     0.940330  p :     2.825725
      px      :     0.912967
      py      :     0.972428
      dz2     :     0.018158  d :     0.087248
      dxz     :     0.021786
      dyz     :     0.016327
      dx2y2   :     0.018486
      dxy     :     0.012491
      f0      :     0.001109  f :     0.006834
      f+1     :     0.001053
      f-1     :     0.000669
      f+2     :     0.001169
      f-2     :     0.001219
      f+3     :     0.001103
      f-3     :     0.000514

  3 C s       :     3.234321  s :     3.234321
      pz      :     0.920447  p :     2.806430
      px      :     0.945429
      py      :     0.940555
      dz2     :     0.019484  d :     0.084553
      dxz     :     0.013945
      dyz     :     0.021014
      dx2y2   :     0.014692
      dxy     :     0.015417
      f0      :     0.001048  f :     0.006969
      f+1     :     0.000614
      f-1     :     0.001295
      f+2     :     0.001150
      f-2     :     0.001289
      f+3     :     0.000571
      f-3     :     0.001004

  4 C s       :     3.246706  s :     3.246706
      pz      :     0.929741  p :     2.814927
      px      :     0.959583
      py      :     0.925603
      dz2     :     0.019052  d :     0.078099
      dxz     :     0.012201
      dyz     :     0.018969
      dx2y2   :     0.013447
      dxy     :     0.014430
      f0      :     0.000997  f :     0.006751
      f+1     :     0.000608
      f-1     :     0.001185
      f+2     :     0.001094
      f-2     :     0.001285
      f+3     :     0.000554
      f-3     :     0.001028

  5 H s       :     0.828345  s :     0.828345
      pz      :     0.006480  p :     0.022598
      px      :     0.005040
      py      :     0.011078

  6 C s       :     3.231206  s :     3.231206
      pz      :     0.923816  p :     2.809991
      px      :     0.925484
      py      :     0.960691
      dz2     :     0.017074  d :     0.077503
      dxz     :     0.016880
      dyz     :     0.014613
      dx2y2   :     0.016819
      dxy     :     0.012117
      f0      :     0.001078  f :     0.006786
      f+1     :     0.000975
      f-1     :     0.000671
      f+2     :     0.001145
      f-2     :     0.001245
      f+3     :     0.001146
      f-3     :     0.000527

  7 H s       :     0.868822  s :     0.868822
      pz      :     0.005438  p :     0.021791
      px      :     0.010177
      py      :     0.006177

  8 C s       :     3.205430  s :     3.205430
      pz      :     0.946498  p :     2.796881
      px      :     0.930044
      py      :     0.920338
      dz2     :     0.012668  d :     0.077341
      dxz     :     0.013013
      dyz     :     0.013116
      dx2y2   :     0.019713
      dxy     :     0.018831
      f0      :     0.000254  f :     0.006768
      f+1     :     0.001021
      f-1     :     0.001234
      f+2     :     0.000854
      f-2     :     0.001261
      f+3     :     0.001210
      f-3     :     0.000934

  9 H s       :     0.870430  s :     0.870430
      pz      :     0.005340  p :     0.021635
      px      :     0.009974
      py      :     0.006320

 10 H s       :     0.869370  s :     0.869370
      pz      :     0.005949  p :     0.021647
      px      :     0.005061
      py      :     0.010637

 11 H s       :     0.868574  s :     0.868574
      pz      :     0.010204  p :     0.021599
      px      :     0.006229
      py      :     0.005166

 12 C s       :     3.197707  s :     3.197707
      pz      :     0.878596  p :     2.660236
      px      :     0.843926
      py      :     0.937715
      dz2     :     0.022296  d :     0.115783
      dxz     :     0.032771
      dyz     :     0.023627
      dx2y2   :     0.022036
      dxy     :     0.015053
      f0      :     0.001691  f :     0.007755
      f+1     :     0.000783
      f-1     :     0.001105
      f+2     :     0.000736
      f-2     :     0.001318
      f+3     :     0.001511
      f-3     :     0.000611

 13 C s       :     3.233919  s :     3.233919
      pz      :     0.930976  p :     2.806341
      px      :     0.939036
      py      :     0.936328
      dz2     :     0.029663  d :     0.084573
      dxz     :     0.018036
      dyz     :     0.019323
      dx2y2   :     0.007051
      dxy     :     0.010500
      f0      :     0.001635  f :     0.006969
      f+1     :     0.000946
      f-1     :     0.001223
      f+2     :     0.001102
      f-2     :     0.000977
      f+3     :     0.000434
      f-3     :     0.000651

 14 C s       :     3.209148  s :     3.209148
      pz      :     0.976564  p :     2.825644
      px      :     0.911420
      py      :     0.937660
      dz2     :     0.019251  d :     0.087277
      dxz     :     0.022681
      dyz     :     0.010947
      dx2y2   :     0.018732
      dxy     :     0.015666
      f0      :     0.001256  f :     0.006834
      f+1     :     0.001023
      f-1     :     0.000621
      f+2     :     0.000920
      f-2     :     0.001077
      f+3     :     0.001367
      f-3     :     0.000570

 15 C s       :     3.231377  s :     3.231377
      pz      :     0.948651  p :     2.810068
      px      :     0.923495
      py      :     0.937923
      dz2     :     0.016525  d :     0.077509
      dxz     :     0.019159
      dyz     :     0.010043
      dx2y2   :     0.018536
      dxy     :     0.013245
      f0      :     0.001233  f :     0.006786
      f+1     :     0.001020
      f-1     :     0.000616
      f+2     :     0.000934
      f-2     :     0.001002
      f+3     :     0.001427
      f-3     :     0.000554

 16 H s       :     0.868761  s :     0.868761
      pz      :     0.003993  p :     0.021792
      px      :     0.010929
      py      :     0.006870

 17 C s       :     3.246429  s :     3.246429
      pz      :     0.903420  p :     2.814839
      px      :     0.957392
      py      :     0.954027
      dz2     :     0.026358  d :     0.078092
      dxz     :     0.016695
      dyz     :     0.019559
      dx2y2   :     0.006718
      dxy     :     0.008761
      f0      :     0.001543  f :     0.006750
      f+1     :     0.000902
      f-1     :     0.001138
      f+2     :     0.001048
      f-2     :     0.001030
      f+3     :     0.000438
      f-3     :     0.000651

 18 H s       :     0.828391  s :     0.828391
      pz      :     0.012251  p :     0.022593
      px      :     0.005797
      py      :     0.004545

 19 C s       :     3.205356  s :     3.205356
      pz      :     0.925246  p :     2.796822
      px      :     0.922028
      py      :     0.949548
      dz2     :     0.013216  d :     0.077348
      dxz     :     0.021989
      dyz     :     0.016670
      dx2y2   :     0.014291
      dxy     :     0.011182
      f0      :     0.001357  f :     0.006768
      f+1     :     0.000786
      f-1     :     0.001100
      f+2     :     0.000424
      f-2     :     0.001269
      f+3     :     0.001375
      f-3     :     0.000458

 20 H s       :     0.869359  s :     0.869359
      pz      :     0.011345  p :     0.021648
      px      :     0.005845
      py      :     0.004457

 21 H s       :     0.870391  s :     0.870391
      pz      :     0.003956  p :     0.021635
      px      :     0.010736
      py      :     0.006942

 22 H s       :     0.868550  s :     0.868550
      pz      :     0.009189  p :     0.021599
      px      :     0.005578
      py      :     0.006832

 23 C s       :     3.197484  s :     3.197484
      pz      :     0.916659  p :     2.660062
      px      :     0.861042
      py      :     0.882361
      dz2     :     0.023080  d :     0.115809
      dxz     :     0.015942
      dyz     :     0.021243
      dx2y2   :     0.027085
      dxy     :     0.028460
      f0      :     0.000504  f :     0.007755
      f+1     :     0.001382
      f-1     :     0.001005
      f+2     :     0.001330
      f-2     :     0.001265
      f+3     :     0.000880
      f-3     :     0.001388

 24 C s       :     3.208544  s :     3.208544
      pz      :     0.950069  p :     2.825777
      px      :     0.918283
      py      :     0.957425
      dz2     :     0.011909  d :     0.087256
      dxz     :     0.009464
      dyz     :     0.022818
      dx2y2   :     0.017785
      dxy     :     0.025280
      f0      :     0.000810  f :     0.006834
      f+1     :     0.001173
      f-1     :     0.000306
      f+2     :     0.001110
      f-2     :     0.001237
      f+3     :     0.000989
      f-3     :     0.001209

 25 C s       :     3.234267  s :     3.234267
      pz      :     0.943998  p :     2.806527
      px      :     0.943796
      py      :     0.918733
      dz2     :     0.009346  d :     0.084559
      dxz     :     0.009423
      dyz     :     0.021932
      dx2y2   :     0.023177
      dxy     :     0.020681
      f0      :     0.000609  f :     0.006969
      f+1     :     0.000696
      f-1     :     0.001011
      f+2     :     0.001323
      f-2     :     0.000918
      f+3     :     0.000770
      f-3     :     0.001642

 26 C s       :     3.246684  s :     3.246684
      pz      :     0.950965  p :     2.814888
      px      :     0.959659
      py      :     0.904265
      dz2     :     0.009721  d :     0.078100
      dxz     :     0.008314
      dyz     :     0.020761
      dx2y2   :     0.020994
      dxy     :     0.018309
      f0      :     0.000601  f :     0.006750
      f+1     :     0.000738
      f-1     :     0.000982
      f+2     :     0.001302
      f-2     :     0.000884
      f+3     :     0.000772
      f-3     :     0.001471

 27 H s       :     0.828304  s :     0.828304
      pz      :     0.006862  p :     0.022597
      px      :     0.005740
      py      :     0.009995

 28 C s       :     3.231230  s :     3.231230
      pz      :     0.952602  p :     2.809988
      px      :     0.930964
      py      :     0.926423
      dz2     :     0.011911  d :     0.077507
      dxz     :     0.009220
      dyz     :     0.018972
      dx2y2   :     0.017317
      dxy     :     0.020086
      f0      :     0.000837  f :     0.006786
      f+1     :     0.001242
      f-1     :     0.000288
      f+2     :     0.001074
      f-2     :     0.001201
      f+3     :     0.000922
      f-3     :     0.001223

 29 H s       :     0.868763  s :     0.868763
      pz      :     0.007786  p :     0.021792
      px      :     0.009827
      py      :     0.004180

 30 C s       :     3.205423  s :     3.205423
      pz      :     0.933147  p :     2.796816
      px      :     0.928916
      py      :     0.934753
      dz2     :     0.019563  d :     0.077345
      dxz     :     0.012727
      dyz     :     0.011725
      dx2y2   :     0.016678
      dxy     :     0.016651
      f0      :     0.000403  f :     0.006768
      f+1     :     0.001330
      f-1     :     0.001024
      f+2     :     0.001067
      f-2     :     0.001086
      f+3     :     0.000867
      f-3     :     0.000991

 31 H s       :     0.870423  s :     0.870423
      pz      :     0.007979  p :     0.021635
      px      :     0.009637
      py      :     0.004019

 32 H s       :     0.869356  s :     0.869356
      pz      :     0.006812  p :     0.021648
      px      :     0.005797
      py      :     0.009038

 33 H s       :     0.868564  s :     0.868564
      pz      :     0.004452  p :     0.021599
      px      :     0.005314
      py      :     0.011833



                     *******************************
                     * LOEWDIN POPULATION ANALYSIS *
                     *******************************

----------------------
LOEWDIN ATOMIC CHARGES
----------------------
   0 P :    0.694365
   1 C :   -0.274506
   2 C :   -0.134526
   3 C :   -0.139772
   4 C :   -0.142025
   5 H :    0.156617
   6 C :   -0.142507
   7 H :    0.148826
   8 C :   -0.141370
   9 H :    0.146102
  10 H :    0.146252
  11 H :    0.145393
  12 C :   -0.274537
  13 C :   -0.139787
  14 C :   -0.134469
  15 C :   -0.142475
  16 H :    0.148804
  17 C :   -0.142008
  18 H :    0.156614
  19 C :   -0.141309
  20 H :    0.146256
  21 H :    0.146107
  22 H :    0.145404
  23 C :   -0.274542
  24 C :   -0.134428
  25 C :   -0.139830
  26 C :   -0.141999
  27 H :    0.156605
  28 C :   -0.142506
  29 H :    0.148825
  30 C :   -0.141336
  31 H :    0.146106
  32 H :    0.146255
  33 H :    0.145400

-------------------------------
LOEWDIN REDUCED ORBITAL CHARGES
-------------------------------
  0 P s       :     4.920675  s :     4.920675
      pz      :     2.746450  p :     8.777358
      px      :     3.283666
      py      :     2.747242
      dz2     :     0.114670  d :     0.508768
      dxz     :     0.092989
      dyz     :     0.125893
      dx2y2   :     0.092272
      dxy     :     0.082944
      f0      :     0.012838  f :     0.098833
      f+1     :     0.015812
      f-1     :     0.015287
      f+2     :     0.013286
      f-2     :     0.019605
      f+3     :     0.012248
      f-3     :     0.009758

  1 C s       :     2.773516  s :     2.773516
      pz      :     0.977799  p :     2.982262
      px      :     1.005601
      py      :     0.998862
      dz2     :     0.082431  d :     0.471745
      dxz     :     0.102803
      dyz     :     0.083794
      dx2y2   :     0.102183
      dxy     :     0.100534
      f0      :     0.003875  f :     0.046982
      f+1     :     0.006362
      f-1     :     0.007869
      f+2     :     0.008899
      f-2     :     0.005685
      f+3     :     0.008116
      f-3     :     0.006176

  2 C s       :     2.771619  s :     2.771619
      pz      :     0.986915  p :     2.932487
      px      :     0.982339
      py      :     0.963233
      dz2     :     0.075983  d :     0.388087
      dxz     :     0.092596
      dyz     :     0.075914
      dx2y2   :     0.077809
      dxy     :     0.065785
      f0      :     0.006038  f :     0.042334
      f+1     :     0.006780
      f-1     :     0.005740
      f+2     :     0.007375
      f-2     :     0.005479
      f+3     :     0.006647
      f-3     :     0.004276

  3 C s       :     2.772456  s :     2.772456
      pz      :     0.988339  p :     2.934792
      px      :     0.956013
      py      :     0.990439
      dz2     :     0.084514  d :     0.390130
      dxz     :     0.065569
      dyz     :     0.097569
      dx2y2   :     0.062488
      dxy     :     0.079989
      f0      :     0.005510  f :     0.042394
      f+1     :     0.005385
      f-1     :     0.007866
      f+2     :     0.008069
      f-2     :     0.005329
      f+3     :     0.004697
      f-3     :     0.005539

  4 C s       :     2.773828  s :     2.773828
      pz      :     0.994027  p :     2.943101
      px      :     0.951487
      py      :     0.997587
      dz2     :     0.082848  d :     0.382867
      dxz     :     0.063153
      dyz     :     0.095683
      dx2y2   :     0.061796
      dxy     :     0.079386
      f0      :     0.005564  f :     0.042229
      f+1     :     0.005354
      f-1     :     0.007808
      f+2     :     0.007857
      f-2     :     0.005259
      f+3     :     0.004815
      f-3     :     0.005570

  5 H s       :     0.783191  s :     0.783191
      pz      :     0.017353  p :     0.060192
      px      :     0.013784
      py      :     0.029056

  6 C s       :     2.773473  s :     2.773473
      pz      :     0.989025  p :     2.944371
      px      :     0.995554
      py      :     0.959792
      dz2     :     0.074051  d :     0.382312
      dxz     :     0.088764
      dyz     :     0.075228
      dx2y2   :     0.078643
      dxy     :     0.065626
      f0      :     0.006010  f :     0.042350
      f+1     :     0.006669
      f-1     :     0.005674
      f+2     :     0.007341
      f-2     :     0.005472
      f+3     :     0.006822
      f-3     :     0.004362

  7 H s       :     0.793345  s :     0.793345
      pz      :     0.014719  p :     0.057829
      px      :     0.026396
      py      :     0.016714

  8 C s       :     2.773924  s :     2.773924
      pz      :     0.952715  p :     2.943348
      px      :     0.983322
      py      :     1.007311
      dz2     :     0.061213  d :     0.381758
      dxz     :     0.070672
      dyz     :     0.071104
      dx2y2   :     0.085730
      dxy     :     0.093040
      f0      :     0.002474  f :     0.042339
      f+1     :     0.005667
      f-1     :     0.007555
      f+2     :     0.007414
      f-2     :     0.005298
      f+3     :     0.008077
      f-3     :     0.005854

  9 H s       :     0.796585  s :     0.796585
      pz      :     0.014556  p :     0.057312
      px      :     0.025750
      py      :     0.017006

 10 H s       :     0.796442  s :     0.796442
      pz      :     0.016014  p :     0.057306
      px      :     0.013958
      py      :     0.027334

 11 H s       :     0.797290  s :     0.797290
      pz      :     0.026370  p :     0.057318
      px      :     0.016757
      py      :     0.014191

 12 C s       :     2.773496  s :     2.773496
      pz      :     1.025243  p :     2.982312
      px      :     1.023504
      py      :     0.933565
      dz2     :     0.096187  d :     0.471742
      dxz     :     0.142385
      dyz     :     0.090128
      dx2y2   :     0.071981
      dxy     :     0.071060
      f0      :     0.010800  f :     0.046987
      f+1     :     0.006866
      f-1     :     0.006434
      f+2     :     0.005048
      f-2     :     0.007029
      f+3     :     0.005734
      f-3     :     0.005077

 13 C s       :     2.772469  s :     2.772469
      pz      :     1.052194  p :     2.934767
      px      :     0.962695
      py      :     0.919878
      dz2     :     0.133432  d :     0.390156
      dxz     :     0.091071
      dyz     :     0.087001
      dx2y2   :     0.028752
      dxy     :     0.049900
      f0      :     0.009716  f :     0.042395
      f+1     :     0.006971
      f-1     :     0.007102
      f+2     :     0.007198
      f-2     :     0.006975
      f+3     :     0.001270
      f-3     :     0.003163

 14 C s       :     2.771641  s :     2.771641
      pz      :     0.997676  p :     2.932396
      px      :     0.990774
      py      :     0.943945
      dz2     :     0.092805  d :     0.388098
      dxz     :     0.109435
      dyz     :     0.050188
      dx2y2   :     0.069098
      dxy     :     0.066573
      f0      :     0.007979  f :     0.042335
      f+1     :     0.006079
      f-1     :     0.005114
      f+2     :     0.005702
      f-2     :     0.006926
      f+3     :     0.005454
      f-3     :     0.005080

 15 C s       :     2.773472  s :     2.773472
      pz      :     0.992889  p :     2.944368
      px      :     1.002923
      py      :     0.948555
      dz2     :     0.092133  d :     0.382286
      dxz     :     0.107789
      dyz     :     0.048257
      dx2y2   :     0.069645
      dxy     :     0.064462
      f0      :     0.007976  f :     0.042349
      f+1     :     0.006141
      f-1     :     0.005042
      f+2     :     0.005813
      f-2     :     0.007015
      f+3     :     0.005343
      f-3     :     0.005020

 16 H s       :     0.793363  s :     0.793363
      pz      :     0.011023  p :     0.057833
      px      :     0.028297
      py      :     0.018512

 17 C s       :     2.773834  s :     2.773834
      pz      :     1.056322  p :     2.943109
      px      :     0.959304
      py      :     0.927483
      dz2     :     0.131907  d :     0.382838
      dxz     :     0.089495
      dyz     :     0.085101
      dx2y2   :     0.027376
      dxy     :     0.048959
      f0      :     0.009674  f :     0.042227
      f+1     :     0.006898
      f-1     :     0.007065
      f+2     :     0.007169
      f-2     :     0.006987
      f+3     :     0.001280
      f-3     :     0.003155

 18 H s       :     0.783206  s :     0.783206
      pz      :     0.031886  p :     0.060180
      px      :     0.015771
      py      :     0.012523

 19 C s       :     2.773929  s :     2.773929
      pz      :     1.012301  p :     2.943276
      px      :     1.003592
      py      :     0.927382
      dz2     :     0.078897  d :     0.381766
      dxz     :     0.114381
      dyz     :     0.079347
      dx2y2   :     0.054612
      dxy     :     0.054529
      f0      :     0.009561  f :     0.042338
      f+1     :     0.006589
      f-1     :     0.006249
      f+2     :     0.003479
      f-2     :     0.006429
      f+3     :     0.005438
      f-3     :     0.004593

 20 H s       :     0.796436  s :     0.796436
      pz      :     0.029103  p :     0.057307
      px      :     0.015893
      py      :     0.012312

 21 H s       :     0.796579  s :     0.796579
      pz      :     0.011386  p :     0.057314
      px      :     0.027624
      py      :     0.018304

 22 H s       :     0.797280  s :     0.797280
      pz      :     0.023999  p :     0.057316
      px      :     0.015222
      py      :     0.018095

 23 C s       :     2.773496  s :     2.773496
      pz      :     0.956999  p :     2.982288
      px      :     0.997235
      py      :     1.028053
      dz2     :     0.084551  d :     0.471771
      dxz     :     0.067861
      dyz     :     0.080628
      dx2y2   :     0.108971
      dxy     :     0.129760
      f0      :     0.004124  f :     0.046987
      f+1     :     0.005309
      f-1     :     0.006176
      f+2     :     0.007078
      f-2     :     0.008509
      f+3     :     0.006654
      f-3     :     0.009137

 24 C s       :     2.771618  s :     2.771618
      pz      :     0.943316  p :     2.932393
      px      :     0.968355
      py      :     1.020722
      dz2     :     0.045809  d :     0.388082
      dxz     :     0.049441
      dyz     :     0.096841
      dx2y2   :     0.086298
      dxy     :     0.109693
      f0      :     0.005507  f :     0.042335
      f+1     :     0.005065
      f-1     :     0.003184
      f+2     :     0.006177
      f-2     :     0.006969
      f+3     :     0.006923
      f-3     :     0.008511

 25 C s       :     2.772464  s :     2.772464
      pz      :     0.928111  p :     2.934813
      px      :     0.948179
      py      :     1.058523
      dz2     :     0.040297  d :     0.390158
      dxz     :     0.052490
      dyz     :     0.090171
      dx2y2   :     0.115113
      dxy     :     0.092086
      f0      :     0.004367  f :     0.042396
      f+1     :     0.002230
      f-1     :     0.006742
      f+2     :     0.005682
      f-2     :     0.006789
      f+3     :     0.006134
      f-3     :     0.010451

 26 C s       :     2.773829  s :     2.773829
      pz      :     0.935785  p :     2.943092
      px      :     0.945969
      py      :     1.061337
      dz2     :     0.039547  d :     0.382850
      dxz     :     0.052030
      dyz     :     0.092021
      dx2y2   :     0.109835
      dxy     :     0.089418
      f0      :     0.004357  f :     0.042228
      f+1     :     0.002342
      f-1     :     0.006786
      f+2     :     0.005796
      f-2     :     0.006817
      f+3     :     0.005968
      f-3     :     0.010160

 27 H s       :     0.783207  s :     0.783207
      pz      :     0.018396  p :     0.060188
      px      :     0.015666
      py      :     0.026126

 28 C s       :     2.773471  s :     2.773471
      pz      :     0.945084  p :     2.944380
      px      :     0.980547
      py      :     1.018749
      dz2     :     0.046127  d :     0.382305
      dxz     :     0.049081
      dyz     :     0.094001
      dx2y2   :     0.085993
      dxy     :     0.107102
      f0      :     0.005550  f :     0.042350
      f+1     :     0.005188
      f-1     :     0.003121
      f+2     :     0.006127
      f-2     :     0.006910
      f+3     :     0.006917
      f-3     :     0.008536

 29 H s       :     0.793344  s :     0.793344
      pz      :     0.020894  p :     0.057832
      px      :     0.025506
      py      :     0.011432

 30 C s       :     2.773926  s :     2.773926
      pz      :     0.964983  p :     2.943311
      px      :     0.982585
      py      :     0.995743
      dz2     :     0.078638  d :     0.381760
      dxz     :     0.062776
      dyz     :     0.060169
      dx2y2   :     0.092431
      dxy     :     0.087746
      f0      :     0.003703  f :     0.042338
      f+1     :     0.005309
      f-1     :     0.006053
      f+2     :     0.006525
      f-2     :     0.007821
      f+3     :     0.005695
      f-3     :     0.007232

 31 H s       :     0.796581  s :     0.796581
      pz      :     0.020870  p :     0.057313
      px      :     0.024926
      py      :     0.011517

 32 H s       :     0.796438  s :     0.796438
      pz      :     0.018022  p :     0.057307
      px      :     0.015725
      py      :     0.023560

 33 H s       :     0.797284  s :     0.797284
      pz      :     0.012370  p :     0.057317
      px      :     0.014527
      py      :     0.030420



                      *****************************
                      * MAYER POPULATION ANALYSIS *
                      *****************************

  NA   - Mulliken gross atomic population
  ZA   - Total nuclear charge
  QA   - Mulliken gross atomic charge
  VA   - Mayer's total valence
  BVA  - Mayer's bonded valence
  FA   - Mayer's free valence

  ATOM       NA         ZA         QA         VA         BVA        FA
  0 P     14.9550    15.0000     0.0450     3.3186     3.3186     0.0000
  1 C      5.9811     6.0000     0.0189     3.7905     3.7905    -0.0000
  2 C      6.1286     6.0000    -0.1286     3.8336     3.8336    -0.0000
  3 C      6.1323     6.0000    -0.1323     3.9119     3.9119    -0.0000
  4 C      6.1465     6.0000    -0.1465     3.9305     3.9305     0.0000
  5 H      0.8509     1.0000     0.1491     0.9595     0.9595    -0.0000
  6 C      6.1255     6.0000    -0.1255     3.9075     3.9075    -0.0000
  7 H      0.8906     1.0000     0.1094     0.9789     0.9789     0.0000
  8 C      6.0864     6.0000    -0.0864     3.8619     3.8619     0.0000
  9 H      0.8921     1.0000     0.1079     0.9706     0.9706     0.0000
 10 H      0.8910     1.0000     0.1090     0.9684     0.9684    -0.0000
 11 H      0.8902     1.0000     0.1098     0.9669     0.9669     0.0000
 12 C      5.9815     6.0000     0.0185     3.7909     3.7909    -0.0000
 13 C      6.1318     6.0000    -0.1318     3.9118     3.9118     0.0000
 14 C      6.1289     6.0000    -0.1289     3.8334     3.8334    -0.0000
 15 C      6.1257     6.0000    -0.1257     3.9080     3.9080     0.0000
 16 H      0.8906     1.0000     0.1094     0.9789     0.9789     0.0000
 17 C      6.1461     6.0000    -0.1461     3.9300     3.9300    -0.0000
 18 H      0.8510     1.0000     0.1490     0.9595     0.9595    -0.0000
 19 C      6.0863     6.0000    -0.0863     3.8619     3.8619     0.0000
 20 H      0.8910     1.0000     0.1090     0.9684     0.9684    -0.0000
 21 H      0.8920     1.0000     0.1080     0.9706     0.9706    -0.0000
 22 H      0.8901     1.0000     0.1099     0.9669     0.9669     0.0000
 23 C      5.9811     6.0000     0.0189     3.7906     3.7906    -0.0000
 24 C      6.1284     6.0000    -0.1284     3.8339     3.8339    -0.0000
 25 C      6.1323     6.0000    -0.1323     3.9118     3.9118    -0.0000
 26 C      6.1464     6.0000    -0.1464     3.9304     3.9304    -0.0000
 27 H      0.8509     1.0000     0.1491     0.9594     0.9594    -0.0000
 28 C      6.1255     6.0000    -0.1255     3.9075     3.9075     0.0000
 29 H      0.8906     1.0000     0.1094     0.9789     0.9789    -0.0000
 30 C      6.0864     6.0000    -0.0864     3.8618     3.8618     0.0000
 31 H      0.8921     1.0000     0.1079     0.9706     0.9706    -0.0000
 32 H      0.8910     1.0000     0.1090     0.9684     0.9684     0.0000
 33 H      0.8902     1.0000     0.1098     0.9669     0.9669     0.0000

  Mayer bond orders larger than 0.100000
B(  0-P ,  1-C ) :   0.9655 B(  0-P , 12-C ) :   0.9654 B(  0-P , 23-C ) :   0.9654 
B(  1-C ,  2-C ) :   1.3131 B(  1-C ,  3-C ) :   1.3334 B(  2-C ,  4-C ) :   1.3985 
B(  2-C ,  5-H ) :   0.9429 B(  3-C ,  6-C ) :   1.4041 B(  3-C ,  7-H ) :   0.9642 
B(  4-C ,  8-C ) :   1.3834 B(  4-C ,  9-H ) :   0.9704 B(  6-C ,  8-C ) :   1.3727 
B(  6-C , 10-H ) :   0.9691 B(  8-C , 11-H ) :   0.9649 B( 12-C , 13-C ) :   1.3338 
B( 12-C , 14-C ) :   1.3127 B( 13-C , 15-C ) :   1.4040 B( 13-C , 16-H ) :   0.9641 
B( 14-C , 17-C ) :   1.3984 B( 14-C , 18-H ) :   0.9431 B( 15-C , 19-C ) :   1.3731 
B( 15-C , 20-H ) :   0.9691 B( 17-C , 19-C ) :   1.3831 B( 17-C , 21-H ) :   0.9704 
B( 19-C , 22-H ) :   0.9649 B( 23-C , 24-C ) :   1.3133 B( 23-C , 25-C ) :   1.3333 
B( 24-C , 26-C ) :   1.3984 B( 24-C , 27-H ) :   0.9428 B( 25-C , 28-C ) :   1.4040 
B( 25-C , 29-H ) :   0.9641 B( 26-C , 30-C ) :   1.3832 B( 26-C , 31-H ) :   0.9704 
B( 28-C , 30-C ) :   1.3728 B( 28-C , 32-H ) :   0.9691 B( 30-C , 33-H ) :   0.9650 


-------
TIMINGS
-------

Total SCF time: 0 days 0 hours 2 min 43 sec 

Total time                  ....     163.148 sec
Sum of individual times     ....     156.449 sec  ( 95.9%)

SCF preparation             ....       0.116 sec  (  0.1%)
Fock matrix formation       ....     154.575 sec  ( 94.7%)
  Startup                   ....       0.018 sec  (  0.0% of F)
  Split-RI-J                ....      50.576 sec  ( 32.7% of F)
  XC integration            ....     110.314 sec  ( 71.4% of F)
    XC Preparation          ....       0.000 sec  (  0.0% of XC)
    Basis function eval.    ....      22.676 sec  ( 20.6% of XC)
    Density eval.           ....      33.718 sec  ( 30.6% of XC)
    XC-Functional eval.     ....       1.846 sec  (  1.7% of XC)
    XC-Potential eval.      ....      50.643 sec  ( 45.9% of XC)
Diagonalization             ....       0.000 sec  (  0.0%)
Density matrix formation    ....       0.132 sec  (  0.1%)
Total Energy calculation    ....       0.025 sec  (  0.0%)
Population analysis         ....       0.053 sec  (  0.0%)
Orbital Transformation      ....       0.164 sec  (  0.1%)
Orbital Orthonormalization  ....       0.000 sec  (  0.0%)
DIIS solution               ....       0.712 sec  (  0.4%)
SOSCF solution              ....       0.672 sec  (  0.4%)
Finished LeanSCF after 163.2 sec

Maximum memory used throughout the entire LEANSCF-calculation: 145.3 MB

-------------------------   --------------------
FINAL SINGLE POINT ENERGY     -1036.584001955480
-------------------------   --------------------


------------------------------------------------------------------------------
                              ORCA PROPERTY CALCULATIONS
------------------------------------------------------------------------------

GBWName                                 ... TPhP_def2tzvp.gbw
Number of atoms                         ...     34
Number of basis functions               ...    685
Max core memory                         ...   4096 MB

Electric properties:
Dipole moment                           ... YES
Quadrupole moment                       ...  NO
Static polarizability (Dipole/Dipole)   ...  NO
Static polarizability (Dipole/Quad.)    ...  NO
Static polarizability (Quad./Quad.)     ...  NO
Static polarizability (Velocity)        ...  NO
Static hyperpolarizability              ...  NO

Atomic electric properties:
Dipole moment                           ...  NO
Quadrupole moment                       ...  NO
Static polarizability                   ...  NO

Choice of electric origin               ... Center of mass
Position of electric origin             ...    -6.584017     2.541787    -0.157538

General magnetic properties:
Magnetizability                         ...  NO

EPR properties:
g-Tensor (aka g-matrix)                 ...  NO
Zero-Field splitting spin-orbit         ...  NO
Zero-field splitting spin-spin          ...  NO
Hyperfine couplings                     ...  NO (   0 nuclei)
Quadrupole couplings                    ...  NO (   0 nuclei)
Contact density                         ...  NO (   0 nuclei)

NMR properties:
Chemical shifts                         ...  NO (   0 nuclei)
Spin-rotation constants                 ...  NO (   0 nuclei)
Spin-spin couplings                     ...  NO (   0 nuclei,    0 pairs)

Choice of magnetic origin               ... GIAO
Position of magnetic origin             ...     0.000000     0.000000     0.000000

Properties with geometric perturbations:
SCF Hessian                             ...  NO
IR spectrum                             ...  NO
VCD spectrum                            ...  NO
X-ray spectroscopy properties:
SCF XES/XAS/RIXS spectra                ...  NO

SCF SOC stabilization energy            ...  NO
Diagonal Born-Oppenheimer correction    ...  NO

-------------
DIPOLE MOMENT
-------------

Method             : SCF
Type of density    : Electron Density
Multiplicity       :   1
Irrep              :   0
Energy             : -1036.5840019554802893 Eh
Basis              : AO
                                X                 Y                 Z
Electronic contribution:      5.598076804      -0.352721795      -0.273246139
Nuclear contribution   :     -6.151975158       0.387476880       0.301799542
                        -----------------------------------------
Total Dipole Moment    :     -0.553898354       0.034755085       0.028553404
                        -----------------------------------------
Magnitude (a.u.)       :      0.555721692
Magnitude (Debye)      :      1.412532286



--------------------
Rotational spectrum 
--------------------
 
Rotational constants in cm-1:             0.011984             0.011977             0.007129 
Rotational constants in MHz :           359.284006           359.071105           213.720295 

Dipole components along the rotational axes: 
x,y,z [a.u.] :    -0.000763    -0.000839     0.555721 
x,y,z [Debye]:    -0.001939    -0.002132     1.412529 

 

Dipole moment calculation done in   0.0 sec 

Maximum memory used throughout the entire PROP-calculation: 100.1 MB

--------------------------------
SUGGESTED CITATIONS FOR THIS RUN
--------------------------------

Below you find a list of papers that are relevant to this ORCA run
We neither can nor want to force you to cite these papers, but we appreciate if you do
You receive ORCA, which is the product of decades of hard work by many enthusiastic individuals, for free
The only thing we kindly ask in return is that you cite our papers,
We deeply appreciate it, if you show your appreciation for ORCA by not just citing the generic ORCA reference.

Please note that relegating all ORCA citations to the supporting information does *not* help us.
SI sections are not indexed - citations you put there will not count into any citation statistics
But we need these citations in order to attract the funding resources that allow us to do what we are doing

Therefore, if you are a happy ORCA user, please consider citing a few of the papers listed below in the main body of your paper

In addition to the list printed below, the program has created the file TPhP_def2tzvp.bibtex that contains the list in bibtex format
You can import this file easily into all common literature databanks and citation aid programs

It goes without saying that in many instances, there are alternative algorithms to achieve similar
results as the ones you have gotten from ORCA. It is, of course, also the case that in some instances
ORCA just re-implements algorithms worked out by others. We are fully aware of that and we are also
fully appreciative of our colleagues work. Hence this citation list should not be read as indicating
that the listed papers, which are focused on our own work, are the only ones worth citing. It simply
meant to make it easier for users to cite ORCA specific papers. It is not a substitute for doing your
own literature research and citing the relevant literature in a scientifically appropriate manner.

List of essential papers. We consider these as the minimum necessary citations

  1. Neese, F.
     Software update: the ORCA program system, version 6.0
     WIRES Comput. Molec. Sci. 2025 15(1), e70019
     doi.org/10.1002/wcms.70019

List of papers to cite with high priority. The work reported in these papers was absolutely
necessary for this run to complete.
Our perspective: the developers of density functionals and basis sets usually get cited in chemistry papers
Good! But without the algorithms to do something with them, the functionals or basis sets would not do anything.
Hence, in our opinion, the algorithm design and method developments papers are equally worthy of getting cited

  1. Neese, F.
     An improvement of the resolution of the identity approximation for the formation of the Coulomb matrix
     J. Comp. Chem. 2003 24(14), 1740-1747
     doi.org/10.1002/jcc.10318
  2. Neese, F.
     The SHARK Integral Generation and Digestion System
     J. Comp. Chem. 2022 44(3), 381
     doi.org/10.1002/jcc.26942

List of suggested additional citations. These are papers that are important in the 'surrounding' of 
of this run, or papers that preceded the highly important papers. If you like your results we are grateful for a citation.

  1. Neese, F.
     The ORCA program system
     WIRES Comput. Molec. Sci. 2012 2(1), 73-78
     doi.org/10.1002/wcms.81
  2. Neese, F.
     Software update: the ORCA program system, version 4.0
     WIRES Comput. Molec. Sci. 2018 8(1), 1-6
     doi.org/10.1002/wcms.1327
  3. Neese, F.; Wennmohs, F.; Becker, U.; Riplinger, C.
     The ORCA quantum chemistry program package
     J. Chem. Phys. 2020 152(22), 224108
     doi.org/10.1063/5.0004608
  4. Neese, F.
     Software update: The ORCA program system—Version 5.0
     WIRES Comput. Molec. Sci. 2022 12(1), e1606
     doi.org/10.1002/wcms.1606

List of optional additional citations

  1. Neese, F.
     Approximate second-order SCF convergence for spin unrestricted wavefunctions
     Chem. Phys. Lett. 2000 325(1-3), 93-98
     doi.org/10.1016/s0009-2614(00)00662-x

Timings for individual modules:

Sum of individual times          ...      173.078 sec (=   2.885 min)
Startup calculation              ...        6.161 sec (=   0.103 min)   3.6 %
SCF iterations                   ...      166.825 sec (=   2.780 min)  96.4 %
Property calculations            ...        0.092 sec (=   0.002 min)   0.1 %
                             ****ORCA TERMINATED NORMALLY****
TOTAL RUN TIME: 0 days 0 hours 2 minutes 53 seconds 519 msec
