
                                 *****************
                                 * O   R   C   A *
                                 *****************

                                            #,                                       
                                            ###                                      
                                            ####                                     
                                            #####                                    
                                            ######                                   
                                           ########,                                 
                                     ,,################,,,,,                         
                               ,,#################################,,                 
                          ,,##########################################,,             
                       ,#########################################, ''#####,          
                    ,#############################################,,   '####,        
                  ,##################################################,,,,####,       
                ,###########''''           ''''###############################       
              ,#####''   ,,,,##########,,,,          '''####'''          '####       
            ,##' ,,,,###########################,,,                        '##       
           ' ,,###''''                  '''############,,,                           
         ,,##''                                '''############,,,,        ,,,,,,###''
      ,#''                                            '''#######################'''  
     '                                                          ''''####''''         
             ,#######,   #######,   ,#######,      ##                                
            ,#'     '#,  ##    ##  ,#'     '#,    #''#        ,####,    ,#,          
            ##       ##  ##   ,#'  ##            #'  '#       #'       ,# #          
            ##       ##  #######   ##           ,######,      #####,      #          
            '#,     ,#'  ##    ##  '#,     ,#' ,#      #,     #,   #      #          
             '#######'   ##     ##  '#######'  #'      '#     '####' #    #          



                #########################################################
                #                        -***-                          #
                #          Department of theory and spectroscopy        #
                #                                                       #
                #                      Frank Neese                      #
                #                                                       #
                #     Directorship, Architecture, Infrastructure        #
                #                    SHARK, DRIVERS                     #
                #        Core code/Algorithms in most modules           #
                #                                                       #
                #        Max Planck Institute fuer Kohlenforschung      #
                #                Kaiser Wilhelm Platz 1                 #
                #                 D-45470 Muelheim/Ruhr                 #
                #                      Germany                          #
                #                                                       #
                #                  All rights reserved                  #
                #                        -***-                          #
                #########################################################


                         Program Version 6.1.1  -  RELEASE   -
                                (GIT: $487d211c$)
                          ($2025-11-21 10:33:24 +0100$)


 With contributions from (in alphabetic order):
[Max-Planck-Institut fuer Kohlenforschung]                               
  Daniel Aravena         : Magnetic Suceptibility                        
  Michael Atanasov       : Ab Initio Ligand Field Theory (pilot matlab implementation)
  Alexander A. Auer      : GIAO ZORA, VPT2 properties, NMR spectrum      
  Ute Becker             : All parallelization in ORCA, NUMFREQ, NUMCALC 
  Giovanni Bistoni       : ED, misc. LED, open-shell LED, HFLD           
  Dmytro Bykov           : pre 5.0 version of the SCF Hessian            
  Marcos Casanova-Páez   : Triplet and SCS-CIS(D). UHF-(DLPNO)-IP/EA/STEOM-CCSD. UHF-CVS-IP/STEOM-CCSD   
  Vijay G. Chilkuri      : MRCI spin determinant printing, contributions to CSF-ICE 
  Pauline Colinet        : FMM embedding                                 
  Dipayan Datta          : RHF DLPNO-CCSD density                        
  Achintya Kumar Dutta   : EOM-CC, STEOM-CC                              
  Nicolas Foglia         : Exact transition moments, OPA infrastructure, MCD improvements    
  Dmitry Ganyushin       : Spin-Orbit,Spin-Spin,Magnetic field MRCI      
  Miquel Garcia-Rates    : C-PCM and meta-GGA Hessian, CCSD/C-PCM, Gaussian charge scheme 
  Tiago L. C. Gouveia    : GS-ROHF, GS-ROCIS                             
  Yang Guo               : DLPNO-NEVPT2, F12-NEVPT2, CIM, IAO-localization        
  Andreas Hansen         : Spin unrestricted coupled pair/coupled cluster methods 
  Ingolf Harden          : AUTO-CI MPn and infrastructure                
  Benjamin Helmich-Paris : MC-RPA, TRAH-(SCF,CASSCF), AVAS, COSX integrals, SCF dyn. polar., MC-PDFT, srDFT 
  Lee Huntington         : MR-EOM, pCC                                   
  Robert Izsak           : Overlap fitted RIJCOSX, COSX-SCS-MP3, EOM     
  Riya Kayal             : Wick's Theorem for AUTO-CI, AUTO-CI UHF-CCSDT 
  Emily Kempfer          : AUTO-CI RHF CISDT and CCSDT, approximate NEVPT4
  Christian Kollmar      : KDIIS, OOCD, Brueckner-CCSD(T), CCSD density, CASPT2, CASPT2-K, improved NEVPT2 
  Axel Koslowski         : Symmetry handling                             
  Simone Kossmann        : meta-GGA functionals, TD-DFT gradient, OOMP2, (MP2 Hessian; deprecated post 5.0) 
  Lucas Lang             : DCDCAS, Hyperfine gauge corrections, ICE-SOC+SSC
  Marvin Lechner         : AUTO-CI (C++ implementation), FIC-MRCC        
  Spencer Leger          : CASSCF response                               
  Dagmar Lenk            : GEPOL surface, SMD, ORCA-2-JSON               
  Dimitrios Liakos       : Extrapolation schemes; Compound Job, Property file
  Dimitrios Manganas     : Further ROCIS development; embedding schemes. LFT, Crystal Embedding 
  Dimitrios Pantazis     : SARC Basis sets                               
  Anastasios Papadopoulos: AUTO-CI, single reference methods and gradients 
  Taras Petrenko         : pre 6.0 DFT Hessian and TD-DFT gradient,  ECA, NRVS 
  Petra Pikulova         : Analytic Raman intensities                    
  Peter Pinski           : DLPNO-MP2, DLPNO-MP2 Gradient                 
  Shashank Vittal Rao    : ES-AILFT, MagRelax                            
  Christoph Reimann      : Effective Core Potentials                     
  Marius Retegan         : Local ZFS, SOC                                
  Christoph Riplinger    : Optimizer, TS searches, QM/MM, DLPNO-CCSD(T), (RO)-DLPNO pert. Triples 
  Michael Roemelt        : Original ROCIS implementation, recursive CI coupling coefficients
  Masaaki Saitow         : Open-shell DLPNO-CCSD energy and density      
  Barbara Sandhoefer     : DKH picture change effects                    
  Yorick L. A. Schmerwitz: GMF and freeze-and-release deltaSCF, NEB S-IDPP initial path                    
  Kantharuban Sivalingam : CASSCF convergence/infrastructure, NEVPT2, NEVPT3, NEVPT4(SD), FIC-MRCI and CEPA variants
  Bernardo de Souza      : ESD, SOC TD-DFT                               
  Georgi L. Stoychev     : AutoAux, RI-MP2 NMR, DLPNO-MP2 response, X2C  
  Van Anh Tran           : RI-MP2 g-tensors                              
  Willem Van den Heuvel  : Paramagnetic NMR                              
  Zikuan Wang            : NOTCH, Electric field optimization            
  Frank Wennmohs         : Technical directorship and infrastructure     
  Hang Xu                : AUTO-CI-Response properties                   
                                                                         
[FACCTs GmbH]                                                            
  Markus Bursch, Nicolas Foglia, Miquel Garcia-Rates, Ingolf Harden, Hagen Neugebauer, Anastasios Papadopoulos, 
  Christoph Riplinger, Bernardo de Souza, Georgi L. Stoychev                                                    
                                                                 
  APM, various basis sets, CI-OPT, improved COSX, DLPNO-Multilevel,           
  DOCKER, DRACO, updates on ESD, Fragmentator, GOAT, IRC, LR-CPCM, L-BFGS, MBIS, meta-GGA TD-DFT gradient, ML-optimized integration grids, 
  MM, NACMEs, nearIR, NEB, NEB-TS, NL-DFT gradient (VV10), 2- and 3-layer-ONIOM, interface openCOSMO-RS, QMMM,   
  Crystal-QMMM, RESP, rigid body optimization, SF, symmetry and pop. for TD-DFT, various functionals, SOLVATOR                                   
                                                                         
[Other institutions]                                                     
  V. Asgeirsson          : NEB                                           
  Christoph Bannwarth    : sTDA-DFT, sTD-DFT, PBEh-3c, B97-3c, D3        
  Giovanni Bistoni       : ETS/NOCV, ADLD/ADEX, COVALED                  
  Martin Brehm           : Molecular dynamics                            
  Ronald Cardenas        : ETS/NOCV                                      
  Martina Colucci        : COVALED                                       
  Sebastian Ehlert       : rSCAN, r2SCAN, r2SCAN-3c, D4, dhf basis sets  
  Marvin Friede          : D4 for Fr, Ra, Ac-Lr                          
  Lars Goerigk           : TD-DFT with DH, B97 family of functionals     
  Stefan Grimme          : VdW corrections, initial TS optimization, DFT functionals, gCP, sTDA/sTD-DF 
  Waldemar Hujo          : DFT-NL                                        
  H. Jonsson             : NEB                                           
  Holger Kruse           : gCP                                           
  Marcel Mueller         : wB97X-3c, vDZP basis set                      
  Hagen Neugebauer       : wr2SCAN, Native XTB                           
  Gianluca Regni         : ADLD/ADEX                                     
  Tobias Risthaus        : pre 6.0 range-separated hybrid DFT and stability analysis
  Lukas Wittmann         : regularized MP2, r2SCAN double-hybrids, wr2SCAN        
                                                                         
We gratefully acknowledge several colleagues who have allowed us to      
interface, adapt or use parts of their codes:                            
  Ed Valeev, F. Pavosevic, A. Kumar             : LibInt (2-el integral package), F12 methods 
  Garnet Chan, S. Sharma, J. Yang, R. Olivares  : DMRG                   
  Ulf Ekstrom                                   : XCFun DFT Library      
  Mihaly Kallay                                 : mrcc  (arbitrary order and MRCC methods)
  Frank Weinhold                                : gennbo (NPA and NBO analysis)           
  Simon Mueller                                 : openCOSMO-RS                            
  Christopher J. Cramer and Donald G. Truhlar   : smd solvation model                     
  S Lehtola, MJT Oliveira, MAL Marques          : LibXC Library                           
  Liviu Ungur et al                             : ANISO software                          


 Your calculation uses the libint2 library for the computation of 2-el integrals
 For citations please refer to: http://libint.valeyev.net

 Your ORCA version has been built with support for libXC version: 7.0.0
 For citations please refer to: https://libxc.gitlab.io

 This ORCA versions uses:
   CBLAS   interface :  Fast vector & matrix operations
   LAPACKE interface :  Fast linear algebra routines
   SCALAPACK package :  Parallel linear algebra routines
   Shared memory     :  Shared parallel matrices
   BLAS/LAPACK       :  OpenBLAS 0.3.29  USE64BITINT DYNAMIC_ARCH NO_AFFINITY Cooperlake SINGLE_THREADED
        Core in use  :  Cooperlake
   Copyright (c) 2011-2014, The OpenBLAS Project


  ***********************************
  * Starting time: Thu Jul  9 14:13:17 2026
  * Host name:     c1-42
  * Process ID:    3149200
  * Working dir.:  /cluster/projects/nn14654k/ylvaos/TPhP_bsse/orca/geomopt_wb97x-d4_def2svp
  ***********************************

Your calculation utilizes the atom-pairwise dispersion correction
based on EEQ partial charges (D4)


Warning: RI is on but no J-basis has been assigned. Assigning Def2/J (nothing to worry about!)
================================================================================

cite the ECPs for Ru [Def2-ECP] as follows:
Ce-Yb(ecp-28): M. Dolg, H. Stoll, H.Preuss, J. Chem. Phys., 1989, 90, 1730-1734.
Y-Cd(ecp-28), Hf-Hg(ecp-46): D. Andrae,U. Haeussermann, M. Dolg, H. Stoll, H. Preuss, Theor. Chim. Acta, 1990, 77, 123-141.
In-Sb(ecp-28), Tl-Bi(ecp-46): B. Metz, H. Stoll, M. Dolg, J. Chem. Phys., 2000, 113, 2563-2569.
Te-Xe(ecp-28), Po-Rn(ecp-46): K. A. Peterson, D. Figgen, E. Goll, H. Stoll, M. Dolg, J. Chem. Phys., 2003, 119, 11113-11123.
Rb(ecp-28), Cs(ecp-46): T. Leininger, A. Nicklass, W. Kuechle, H. Stoll, M. Dolg, A. Bergner, Chem. Phys. Lett., 1996, 255, 274-280.
Sr(ecp-28), Ba(ecp-46): M. Kaupp, P. V. Schleyer, H. Stoll and H. Preuss, J. Chem. Phys., 1991, 94, 1360-1366.
La(ecp-46): M. Dolg, H. Stoll, A. Savin, H. Preuss, Theor. Chim. Acta, 1989, 75, 173-194.
Lu(ecp-28): X. Cao, M. Dolg, J. Chem. Phys., 2001, 115, 7348-7355.

ECP parameters for Ru [Def2-ECP] have been obtained from:
TURBOMOLE (7.0.2)

----- Orbital basis set information -----
Your calculation utilizes the basis: def2-SVP
   F. Weigend and R. Ahlrichs, Phys. Chem. Chem. Phys. 7, 3297 (2005).

----- AuxJ basis set information -----
Your calculation utilizes the auxiliary basis: def2/J
   H-Rn: F. Weigend, Phys. Chem. Chem. Phys. 8, 1057 (2006).
   Fr-Lr: K. Eichkorn, F. Weigend, O. Treutler, R. Ahlrichs; Theor. Chem. Acc. 97, 119 (1997).

================================================================================
                                        WARNINGS
                       Please study these warnings very carefully!
================================================================================


WARNING: Geometry Optimization
  ===> : Switching off AutoStart
         For restart on a previous wavefunction, please use MOREAD

================================================================================
                                       INPUT FILE
================================================================================
NAME = 15h_opt.inp
|  1> ! wB97X-D4 def2-SVP TightSCF defgrid3 Opt
|  2> 
|  3> %pal nprocs 32 end
|  4> 
|  5> %loc
|  6>   LocMet NEWBOYS
|  7>   Occ true
|  8> end
|  9> 
| 10> *xyz 0 1
| 11> Ru -0.003858 -0.163889 -0.271867
| 12> P -2.297768 -0.007621 -0.144184
| 13> P 2.287169 -0.017737 -0.156253
| 14> C -2.911647 -0.599535 1.515487
| 15> C -4.685018 -2.651731 -3.192189
| 16> C -3.814101 -3.233195 -2.253048
| 17> C -3.131150 -2.427303 -1.330945
| 18> C -3.114479 1.658920 -0.250013
| 19> C -2.362022 2.783003 -0.650011
| 20> C -2.965845 4.049809 -0.733501
| 21> C -4.323605 4.206007 -0.412900
| 22> C -5.079741 3.093236 -0.002279
| 23> C -4.480344 1.827521 0.080460
| 24> C 3.095834 1.619147 -0.504111
| 25> C -2.171085 -0.211966 2.659457
| 26> C 2.525407 2.481327 -1.466488
| 27> C 3.129740 3.712566 -1.768240
| 28> C 4.306822 4.101575 -1.107417
| 29> C 4.880093 3.254350 -0.144042
| 30> C 4.281389 2.019500 0.155693
| 31> C 3.362704 -1.179941 -1.143988
| 32> C 2.942300 -2.524227 -1.283972
| 33> C 3.712726 -3.442373 -2.014309
| 34> C 4.905709 -3.029079 -2.631533
| 35> C 5.326691 -1.695059 -2.509044
| 36> C -2.568324 -0.625371 3.940427
| 37> C 4.565187 -0.776227 -1.766802
| 38> C 2.861239 -0.364185 1.583653
| 39> C 2.371020 0.461983 2.626799
| 40> C 2.717629 0.203094 3.961166
| 41> C 3.546125 -0.888449 4.277679
| 42> C 4.031734 -1.715720 3.252536
| 43> C 3.695943 -1.456310 1.912370
| 44> C -3.707207 -1.433122 4.099439
| 45> C -4.445772 -1.827475 2.971604
| 46> C -4.052788 -1.416625 1.686379
| 47> C -3.323064 -1.022952 -1.319037
| 48> C -4.200392 -0.449774 -2.266112
| 49> C -4.872058 -1.261108 -3.197986
| 50> H -1.298755 2.649696 -0.870975
| 51> H -2.370191 4.915014 -1.041918
| 52> H -4.792336 5.193394 -0.473894
| 53> H -6.135714 3.213453 0.260137
| 54> H -5.065805 0.965746 0.415281
| 55> H -2.437173 -2.881612 -0.614882
| 56> H -3.660763 -4.317245 -2.244132
| 57> H -5.210149 -3.281332 -3.917206
| 58> H -5.544384 -0.800435 -3.929013
| 59> H -4.359007 0.632153 -2.270941
| 60> H -4.621891 -1.742439 0.810763
| 61> H -1.282015 0.416196 2.530447
| 62> H -1.984390 -0.319193 4.814389
| 63> H -4.015448 -1.757570 5.098333
| 64> H -5.331982 -2.459566 3.090250
| 65> H 4.724103 1.366408 0.913741
| 66> H 5.793845 3.555443 0.378349
| 67> H 4.773395 5.064508 -1.338103
| 68> H 2.675337 4.371244 -2.515380
| 69> H 1.596354 2.180557 -1.961758
| 70> H 1.997789 -2.839423 -0.827035
| 71> H 4.900859 0.260216 -1.672911
| 72> H 6.251546 -1.364623 -2.992861
| 73> H 3.374252 -4.479068 -2.110682
| 74> H 5.500286 -3.742732 -3.210487
| 75> H 4.081472 -2.100363 1.116945
| 76> H 1.717455 1.304389 2.376404
| 77> H 2.338921 0.854023 4.755956
| 78> H 3.811124 -1.091676 5.320045
| 79> H 4.679547 -2.565105 3.492624
| 80> H -0.073143 -1.801039 -0.912445
| 81> H -0.035696 -1.231505 -1.614805
| 82> H -0.002430 0.718155 -1.563089
| 83> H 0.035829 1.263937 0.526471
| 84> **                         ****END OF INPUT****
================================================================================

                       *****************************
                       * Geometry Optimization Run *
                       *****************************

Geometry optimization settings:
Update method            Update   .... BFGS
Choice of coordinates    CoordSys .... (2022) Redundant Internals
Initial Hessian          InHess   .... Almloef's Model
Max. no of cycles        MaxIter  .... 219

Convergence Tolerances:
Energy Change            TolE     ....  5.0000e-06 Eh
Max. Gradient            TolMAXG  ....  3.0000e-04 Eh/bohr
RMS Gradient             TolRMSG  ....  1.0000e-04 Eh/bohr
Max. Displacement        TolMAXD  ....  4.0000e-03 bohr
RMS Displacement         TolRMSD  ....  2.0000e-03 bohr
Strict Convergence                .... False

------------------------------------------------------------------------------
                        ORCA OPTIMIZATION COORDINATE SETUP
------------------------------------------------------------------------------

The optimization will be done in redundant internal coordinates (2022)
Making redundant internal coordinates   ...  (2022 redundants) done
Evaluating the initial hessian          ...  (Almloef) done
Evaluating the coordinates              ...  done
Calculating the B-matrix                .... done
Calculating the G-matrix                .... done
The number of degrees of freedom        ....  403

    -----------------------------------------------------------------
                    Redundant Internal Coordinates


    -----------------------------------------------------------------
         Definition                    Initial Value    Approx d2E/dq
    -----------------------------------------------------------------
      1. B(P   1,Ru  0)                  2.3028         0.743177   
      2. B(P   2,Ru  0)                  2.2986         0.754665   
      3. B(C   3,P   1)                  1.8659         0.365516   
      4. B(C   5,C   4)                  1.4066         0.587788   
      5. B(C   6,C   5)                  1.4022         0.597418   
      6. B(C   7,P   1)                  1.8589         0.375063   
      7. B(C   8,C   7)                  1.4106         0.579289   
      8. B(C   9,C   8)                  1.4058         0.589489   
      9. B(C  10,C   9)                  1.4038         0.593880   
     10. B(C  11,C  10)                  1.4066         0.587767   
     11. B(C  12,C  11)                  1.4029         0.595856   
     12. B(C  12,C   7)                  1.4154         0.569231   
     13. B(C  13,P   2)                  1.8586         0.375523   
     14. B(C  14,C   3)                  1.4168         0.566224   
     15. B(C  15,C  13)                  1.4124         0.575413   
     16. B(C  16,C  15)                  1.4044         0.592694   
     17. B(C  17,C  16)                  1.4048         0.591676   
     18. B(C  18,C  17)                  1.4052         0.590915   
     19. B(C  19,C  18)                  1.4047         0.591982   
     20. B(C  19,C  13)                  1.4146         0.570756   
     21. B(C  20,P   2)                  1.8663         0.365014   
     22. B(C  21,C  20)                  1.4154         0.569073   
     23. B(C  22,C  21)                  1.4035         0.594466   
     24. B(C  23,C  22)                  1.4053         0.590557   
     25. B(C  24,C  23)                  1.4042         0.592992   
     26. B(C  25,C  14)                  1.4034         0.594742   
     27. B(C  26,C  24)                  1.4054         0.590496   
     28. B(C  26,C  20)                  1.4131         0.573966   
     29. B(C  27,P   2)                  1.8646         0.367271   
     30. B(C  28,C  27)                  1.4181         0.563506   
     31. B(C  29,C  28)                  1.4027         0.596215   
     32. B(C  30,C  29)                  1.4064         0.588195   
     33. B(C  31,C  30)                  1.4040         0.593556   
     34. B(C  32,C  31)                  1.4057         0.589702   
     35. B(C  32,C  27)                  1.4133         0.573463   
     36. B(C  33,C  25)                  1.4053         0.590699   
     37. B(C  34,C  33)                  1.4046         0.592088   
     38. B(C  35,C  34)                  1.4054         0.590517   
     39. B(C  35,C   3)                  1.4139         0.572331   
     40. B(C  36,C   6)                  1.4175         0.564857   
     41. B(C  36,P   1)                  1.8608         0.372540   
     42. B(C  37,C  36)                  1.4125         0.575205   
     43. B(C  38,C  37)                  1.4063         0.588399   
     44. B(C  38,C   4)                  1.4032         0.595316   
     45. B(H  39,C   8)                  1.0941         0.354671   
     46. B(H  40,C   9)                  1.0948         0.353855   
     47. B(H  41,C  10)                  1.0947         0.353939   
     48. B(H  42,C  11)                  1.0947         0.353921   
     49. B(H  43,C  12)                  1.0943         0.354436   
     50. B(H  44,C   6)                  1.0958         0.352527   
     51. B(H  45,C   5)                  1.0949         0.353705   
     52. B(H  46,C   4)                  1.0944         0.354268   
     53. B(H  47,C  38)                  1.0948         0.353773   
     54. B(H  48,C  37)                  1.0935         0.355496   
     55. B(H  49,C  35)                  1.0940         0.354907   
     56. B(H  50,C  14)                  1.0962         0.351978   
     57. B(H  51,C  25)                  1.0948         0.353838   
     58. B(H  52,C  33)                  1.0946         0.354114   
     59. B(H  53,C  34)                  1.0950         0.353570   
     60. B(H  54,C  19)                  1.0941         0.354653   
     61. B(H  55,C  18)                  1.0948         0.353862   
     62. B(H  56,C  17)                  1.0946         0.354068   
     63. B(H  57,C  16)                  1.0948         0.353824   
     64. B(H  58,C  15)                  1.0949         0.353623   
     65. B(H  59,C  21)                  1.0956         0.352826   
     66. B(H  60,C  26)                  1.0935         0.355522   
     67. B(H  61,C  24)                  1.0948         0.353784   
     68. B(H  62,C  22)                  1.0948         0.353805   
     69. B(H  63,C  23)                  1.0945         0.354149   
     70. B(H  64,C  32)                  1.0937         0.355263   
     71. B(H  65,C  28)                  1.0952         0.353269   
     72. B(H  66,C  29)                  1.0949         0.353668   
     73. B(H  67,C  30)                  1.0946         0.354123   
     74. B(H  68,C  31)                  1.0949         0.353704   
     75. B(H  69,Ru  0)                  1.7594         0.311604   
     76. B(H  70,Ru  0)                  1.7159         0.365570   
     77. B(H  71,Ru  0)                  1.5637         0.639350   
     78. B(H  72,Ru  0)                  1.6363         0.489665   
     79. A(P   2,Ru  0,H  72)           84.0193         0.528101   
     80. A(P   1,Ru  0,H  71)           90.4822         0.553810   
     81. A(H  70,Ru  0,H  71)           72.8256         0.427316   
     82. A(P   1,Ru  0,H  70)           93.8494         0.498570   
     83. A(P   2,Ru  0,H  71)           90.2726         0.555427   
     84. A(P   1,Ru  0,H  69)           92.5279         0.484027   
     85. A(H  69,Ru  0,H  70)           30.1567         0.376525   
     86. A(H  69,Ru  0,H  71)          102.9599         0.415304   
     87. A(H  70,Ru  0,H  72)          157.6978         0.407496   
     88. A(P   1,Ru  0,P   2)          170.3227         0.653661   
     89. A(P   2,Ru  0,H  70)           95.5906         0.499994   
     90. A(H  69,Ru  0,H  72)          172.1147         0.396187   
     91. A(P   1,Ru  0,H  72)           86.4393         0.526579   
     92. A(H  71,Ru  0,H  72)           84.8737         0.450453   
     93. A(P   2,Ru  0,H  69)           96.7034         0.485401   
     94. A(C   3,P   1,C   7)          100.9812         0.410650   
     95. A(Ru  0,P   1,C  36)          118.4801         0.515026   
     96. A(Ru  0,P   1,C   3)          110.8252         0.513194   
     97. A(C   3,P   1,C  36)          101.9594         0.410159   
     98. A(Ru  0,P   1,C   7)          119.6921         0.515677   
     99. A(C   7,P   1,C  36)          102.1901         0.412039   
    100. A(Ru  0,P   2,C  13)          118.7017         0.517280   
    101. A(C  13,P   2,C  20)          101.4580         0.410640   
    102. A(C  13,P   2,C  27)          101.7900         0.411089   
    103. A(Ru  0,P   2,C  20)          120.5425         0.514537   
    104. A(C  20,P   2,C  27)          101.5789         0.409026   
    105. A(Ru  0,P   2,C  27)          109.9975         0.515131   
    106. A(P   1,C   3,C  14)          117.3508         0.414430   
    107. A(C  14,C   3,C  35)          118.8403         0.420986   
    108. A(P   1,C   3,C  35)          123.8046         0.415221   
    109. A(C   5,C   4,C  38)          119.6681         0.426803   
    110. A(C  38,C   4,H  46)          120.2275         0.349529   
    111. A(C   5,C   4,H  46)          120.1038         0.348779   
    112. A(C   4,C   5,C   6)          120.2015         0.427073   
    113. A(C   6,C   5,H  45)          119.7016         0.349643   
    114. A(C   4,C   5,H  45)          120.0952         0.348686   
    115. A(C   5,C   6,C  36)          120.5974         0.424042   
    116. A(C  36,C   6,H  44)          119.4077         0.346163   
    117. A(C   5,C   6,H  44)          119.9939         0.349446   
    118. A(P   1,C   7,C   8)          119.7490         0.418029   
    119. A(C   8,C   7,C  12)          119.0824         0.422295   
    120. A(P   1,C   7,C  12)          121.1639         0.416727   
    121. A(C   7,C   8,H  39)          118.5915         0.347991   
    122. A(C   7,C   8,C   9)          120.3849         0.424943   
    123. A(C   9,C   8,H  39)          121.0101         0.349016   
    124. A(C  10,C   9,H  40)          120.1753         0.349318   
    125. A(C   8,C   9,C  10)          120.1405         0.426840   
    126. A(C   8,C   9,H  40)          119.6824         0.348881   
    127. A(C   9,C  10,C  11)          119.9049         0.426616   
    128. A(C  11,C  10,H  41)          119.9759         0.348723   
    129. A(C   9,C  10,H  41)          120.1172         0.349332   
    130. A(C  10,C  11,C  12)          120.0842         0.426870   
    131. A(C  12,C  11,H  42)          119.8065         0.349524   
    132. A(C  10,C  11,H  42)          120.1080         0.348720   
    133. A(C   7,C  12,C  11)          120.3988         0.424428   
    134. A(C  11,C  12,H  43)          119.9969         0.349610   
    135. A(C   7,C  12,H  43)          119.5990         0.346928   
    136. A(C  15,C  13,C  19)          118.9151         0.421990   
    137. A(P   2,C  13,C  19)          121.7759         0.417017   
    138. A(P   2,C  13,C  15)          119.3026         0.417621   
    139. A(C   3,C  14,C  25)          120.5609         0.423885   
    140. A(C  25,C  14,H  50)          120.3833         0.349090   
    141. A(C   3,C  14,H  50)          119.0558         0.346213   
    142. A(C  13,C  15,H  58)          118.8947         0.347425   
    143. A(C  13,C  15,C  16)          120.5168         0.424845   
    144. A(C  16,C  15,H  58)          120.5819         0.349161   
    145. A(C  17,C  16,H  57)          120.1452         0.349093   
    146. A(C  15,C  16,H  57)          119.7033         0.349195   
    147. A(C  15,C  16,C  17)          120.1500         0.426970   
    148. A(C  18,C  17,H  56)          120.0660         0.349058   
    149. A(C  16,C  17,H  56)          120.1068         0.349134   
    150. A(C  16,C  17,C  18)          119.8264         0.426740   
    151. A(C  17,C  18,H  55)          120.1218         0.349024   
    152. A(C  17,C  18,C  19)          120.1616         0.426780   
    153. A(C  19,C  18,H  55)          119.7164         0.349130   
    154. A(C  13,C  19,C  18)          120.4289         0.424137   
    155. A(C  18,C  19,H  54)          120.0070         0.349262   
    156. A(C  13,C  19,H  54)          119.5587         0.347120   
    157. A(P   2,C  20,C  26)          123.0758         0.415330   
    158. A(P   2,C  20,C  21)          118.2034         0.414698   
    159. A(C  21,C  20,C  26)          118.7175         0.421578   
    160. A(C  20,C  21,C  22)          120.6444         0.424230   
    161. A(C  22,C  21,H  59)          120.1364         0.349204   
    162. A(C  20,C  21,H  59)          119.2132         0.346646   
    163. A(C  21,C  22,C  23)          120.1407         0.427054   
    164. A(C  21,C  22,H  62)          119.7056         0.349367   
    165. A(C  23,C  22,H  62)          120.1500         0.348979   
    166. A(C  22,C  23,C  24)          119.7073         0.426864   
    167. A(C  24,C  23,H  63)          120.1788         0.349278   
    168. A(C  22,C  23,H  63)          120.1126         0.349036   
    169. A(C  26,C  24,H  61)          119.5908         0.348969   
    170. A(C  23,C  24,H  61)          120.0952         0.349218   
    171. A(C  23,C  24,C  26)          120.3140         0.426856   
    172. A(C  14,C  25,C  33)          120.1319         0.427108   
    173. A(C  33,C  25,H  51)          120.1785         0.348998   
    174. A(C  14,C  25,H  51)          119.6891         0.349400   
    175. A(C  24,C  26,H  60)          119.9147         0.349258   
    176. A(C  20,C  26,H  60)          119.6150         0.347591   
    177. A(C  20,C  26,C  24)          120.4697         0.424371   
    178. A(C  28,C  27,C  32)          118.8981         0.420773   
    179. A(P   2,C  27,C  32)          122.8488         0.415721   
    180. A(P   2,C  27,C  28)          118.1457         0.414428   
    181. A(C  29,C  28,H  65)          120.4570         0.349451   
    182. A(C  27,C  28,H  65)          119.0924         0.346146   
    183. A(C  27,C  28,C  29)          120.4506         0.423708   
    184. A(C  30,C  29,H  66)          120.1186         0.348720   
    185. A(C  28,C  29,H  66)          119.6913         0.349518   
    186. A(C  28,C  29,C  30)          120.1901         0.426972   
    187. A(C  31,C  30,H  67)          120.1468         0.349330   
    188. A(C  29,C  30,H  67)          120.0686         0.348796   
    189. A(C  29,C  30,C  31)          119.7847         0.426630   
    190. A(C  32,C  31,H  68)          119.5741         0.348877   
    191. A(C  30,C  31,H  68)          120.1097         0.349260   
    192. A(C  30,C  31,C  32)          120.3155         0.426826   
    193. A(C  31,C  32,H  64)          120.0326         0.349136   
    194. A(C  27,C  32,H  64)          119.6091         0.347497   
    195. A(C  27,C  32,C  31)          120.3583         0.424203   
    196. A(C  25,C  33,C  34)          119.7786         0.426766   
    197. A(C  34,C  33,H  52)          120.0970         0.349183   
    198. A(C  25,C  33,H  52)          120.1239         0.349044   
    199. A(C  33,C  34,C  35)          120.3440         0.426742   
    200. A(C  35,C  34,H  53)          119.6149         0.348936   
    201. A(C  33,C  34,H  53)          120.0410         0.349092   
    202. A(C   3,C  35,C  34)          120.3430         0.424158   
    203. A(C  34,C  35,H  49)          119.9636         0.349158   
    204. A(C   3,C  35,H  49)          119.6862         0.347322   
    205. A(C   6,C  36,C  37)          118.7179         0.421181   
    206. A(P   1,C  36,C  37)          122.9671         0.417001   
    207. A(P   1,C  36,C   6)          118.1195         0.415656   
    208. A(C  36,C  37,C  38)          120.4524         0.424265   
    209. A(C  38,C  37,H  48)          119.9076         0.349044   
    210. A(C  36,C  37,H  48)          119.6398         0.347713   
    211. A(C   4,C  38,C  37)          120.3551         0.426883   
    212. A(C  37,C  38,H  47)          119.5369         0.348758   
    213. A(C   4,C  38,H  47)          120.1080         0.349446   
    214. D(C   7,P   1,Ru  0,H  70)   -122.9825         0.010000   
    215. D(C   3,P   1,Ru  0,H  71)   -167.0033         0.010000   
    216. D(C   3,P   1,Ru  0,P   2)    -72.5492         0.010000   
    217. D(C   3,P   1,Ru  0,H  70)    120.1779         0.010000   
    218. D(C   7,P   1,Ru  0,P   2)     44.2904         0.010000   
    219. D(C   7,P   1,Ru  0,H  69)   -153.1588         0.010000   
    220. D(C   3,P   1,Ru  0,H  72)    -82.1698         0.010000   
    221. D(C   3,P   1,Ru  0,H  69)     90.0016         0.010000   
    222. D(C  20,P   2,Ru  0,H  70)    -11.3200         0.010000   
    223. D(C  13,P   2,Ru  0,H  71)     41.7868         0.010000   
    224. D(C  20,P   2,Ru  0,P   1)   -178.5604         0.010000   
    225. D(C  13,P   2,Ru  0,H  72)    -43.0301         0.010000   
    226. D(C  20,P   2,Ru  0,H  69)     18.9951         0.010000   
    227. D(C  13,P   2,Ru  0,H  69)    144.8706         0.010000   
    228. D(C  13,P   2,Ru  0,H  70)    114.5554         0.010000   
    229. D(C  13,P   2,Ru  0,P   1)    -52.6849         0.010000   
    230. D(C  35,C   3,P   1,C   7)     94.5284         0.010000   
    231. D(C  14,C   3,P   1,C  36)    168.6302         0.010000   
    232. D(C  35,C   3,P   1,Ru  0)   -137.6175         0.010000   
    233. D(C  14,C   3,P   1,Ru  0)     41.6118         0.010000   
    234. D(C  14,C   3,P   1,C   7)    -86.2423         0.010000   
    235. D(H  45,C   5,C   4,H  46)     -0.0990         0.023767   
    236. D(H  45,C   5,C   4,C  38)   -179.8249         0.023767   
    237. D(C   6,C   5,C   4,H  46)    179.4329         0.023767   
    238. D(C   6,C   5,C   4,C  38)     -0.2930         0.023767   
    239. D(H  44,C   6,C   5,H  45)      0.8418         0.024593   
    240. D(C  36,C   6,C   5,H  45)   -179.5249         0.024593   
    241. D(C  36,C   6,C   5,C   4)      0.9413         0.024593   
    242. D(H  44,C   6,C   5,C   4)   -178.6919         0.024593   
    243. D(C   8,C   7,P   1,Ru  0)     11.5962         0.010000   
    244. D(C   8,C   7,P   1,C   3)    133.4349         0.010000   
    245. D(C  12,C   7,P   1,Ru  0)   -167.6080         0.010000   
    246. D(C   8,C   7,P   1,C  36)   -121.6213         0.010000   
    247. D(C  12,C   7,P   1,C   3)    -45.7694         0.010000   
    248. D(H  39,C   8,C   7,C  12)    177.9583         0.023053   
    249. D(H  39,C   8,C   7,P   1)     -1.2626         0.023053   
    250. D(C   9,C   8,C   7,P   1)   -179.9441         0.023053   
    251. D(C   9,C   8,C   7,C  12)     -0.7232         0.023053   
    252. D(H  40,C   9,C   8,H  39)      1.1419         0.023912   
    253. D(H  40,C   9,C   8,C   7)    179.7912         0.023912   
    254. D(C  10,C   9,C   8,H  39)   -178.3687         0.023912   
    255. D(C  10,C   9,C   8,C   7)      0.2806         0.023912   
    256. D(C  11,C  10,C   9,C   8)      0.2486         0.024288   
    257. D(H  41,C  10,C   9,C   8)    179.7365         0.024288   
    258. D(C  11,C  10,C   9,H  40)   -179.2596         0.024288   
    259. D(H  41,C  10,C   9,H  40)      0.2282         0.024288   
    260. D(H  42,C  11,C  10,H  41)     -0.2273         0.023765   
    261. D(H  42,C  11,C  10,C   9)    179.2613         0.023765   
    262. D(C  12,C  11,C  10,H  41)   -179.8132         0.023765   
    263. D(C  12,C  11,C  10,C   9)     -0.3246         0.023765   
    264. D(H  43,C  12,C  11,H  42)     -0.5561         0.024458   
    265. D(H  43,C  12,C  11,C  10)    179.0310         0.024458   
    266. D(C   7,C  12,C  11,H  42)   -179.7142         0.024458   
    267. D(C   7,C  12,C  11,C  10)     -0.1271         0.024458   
    268. D(H  43,C  12,C   7,C   8)   -178.5143         0.022225   
    269. D(H  43,C  12,C   7,P   1)      0.6952         0.022225   
    270. D(C  11,C  12,C   7,C   8)      0.6471         0.022225   
    271. D(C  11,C  12,C   7,P   1)    179.8566         0.022225   
    272. D(C  19,C  13,P   2,C  20)    -78.6133         0.010000   
    273. D(C  19,C  13,P   2,Ru  0)    146.7893         0.010000   
    274. D(C  15,C  13,P   2,C  27)   -154.9810         0.010000   
    275. D(C  15,C  13,P   2,C  20)    100.4516         0.010000   
    276. D(C  15,C  13,P   2,Ru  0)    -34.1458         0.010000   
    277. D(H  50,C  14,C   3,C  35)    179.6112         0.021981   
    278. D(H  50,C  14,C   3,P   1)      0.3423         0.021981   
    279. D(C  25,C  14,C   3,C  35)     -0.3841         0.021981   
    280. D(C  25,C  14,C   3,P   1)   -179.6530         0.021981   
    281. D(H  58,C  15,C  13,C  19)   -178.7303         0.022731   
    282. D(H  58,C  15,C  13,P   2)      2.1778         0.022731   
    283. D(C  16,C  15,C  13,C  19)      0.3412         0.022731   
    284. D(C  16,C  15,C  13,P   2)   -178.7507         0.022731   
    285. D(H  57,C  16,C  15,H  58)     -0.8512         0.024186   
    286. D(H  57,C  16,C  15,C  13)   -179.9070         0.024186   
    287. D(C  17,C  16,C  15,H  58)    178.6933         0.024186   
    288. D(C  17,C  16,C  15,C  13)     -0.3625         0.024186   
    289. D(H  56,C  17,C  16,H  57)     -0.0285         0.024098   
    290. D(H  56,C  17,C  16,C  15)   -179.5710         0.024098   
    291. D(C  18,C  17,C  16,H  57)    179.6330         0.024098   
    292. D(C  18,C  17,C  16,C  15)      0.0905         0.024098   
    293. D(H  55,C  18,C  17,H  56)      0.0433         0.024033   
    294. D(H  55,C  18,C  17,C  16)   -179.6183         0.024033   
    295. D(C  19,C  18,C  17,H  56)    179.8590         0.024033   
    296. D(C  19,C  18,C  17,C  16)      0.1974         0.024033   
    297. D(H  54,C  19,C  18,C  17)   -179.3626         0.024125   
    298. D(C  13,C  19,C  18,H  55)    179.6007         0.024125   
    299. D(C  13,C  19,C  18,C  17)     -0.2158         0.024125   
    300. D(H  54,C  19,C  13,C  15)    179.0980         0.022349   
    301. D(H  54,C  19,C  13,P   2)     -1.8335         0.022349   
    302. D(C  18,C  19,C  13,C  15)     -0.0526         0.022349   
    303. D(H  54,C  19,C  18,H  55)      0.4538         0.024125   
    304. D(C  18,C  19,C  13,P   2)    179.0158         0.022349   
    305. D(C  26,C  20,P   2,C  13)      8.2422         0.010000   
    306. D(C  26,C  20,P   2,Ru  0)    141.7579         0.010000   
    307. D(C  21,C  20,P   2,C  27)     84.1768         0.010000   
    308. D(C  21,C  20,P   2,C  13)   -171.0888         0.010000   
    309. D(C  21,C  20,P   2,Ru  0)    -37.5731         0.010000   
    310. D(H  59,C  21,C  20,C  26)   -178.3773         0.022212   
    311. D(H  59,C  21,C  20,P   2)      0.9835         0.022212   
    312. D(C  22,C  21,C  20,C  26)      0.7277         0.022212   
    313. D(C  22,C  21,C  20,P   2)   -179.9115         0.022212   
    314. D(H  62,C  22,C  21,H  59)     -1.0546         0.024338   
    315. D(H  62,C  22,C  21,C  20)    179.8487         0.024338   
    316. D(C  23,C  22,C  21,H  59)    178.2407         0.024338   
    317. D(C  23,C  22,C  21,C  20)     -0.8561         0.024338   
    318. D(H  63,C  23,C  22,H  62)     -0.0109         0.024003   
    319. D(H  63,C  23,C  22,C  21)   -179.3031         0.024003   
    320. D(C  24,C  23,C  22,H  62)    179.5914         0.024003   
    321. D(C  24,C  23,C  22,C  21)      0.2993         0.024003   
    322. D(H  61,C  24,C  23,H  63)      0.0117         0.024211   
    323. D(H  61,C  24,C  23,C  22)   -179.5903         0.024211   
    324. D(C  26,C  24,C  23,H  63)    179.9748         0.024211   
    325. D(C  26,C  24,C  23,C  22)      0.3727         0.024211   
    326. D(H  51,C  25,C  14,H  50)     -0.1169         0.024362   
    327. D(H  51,C  25,C  14,C   3)    179.8783         0.024362   
    328. D(C  33,C  25,C  14,H  50)   -179.8546         0.024362   
    329. D(C  33,C  25,C  14,C   3)      0.1407         0.024362   
    330. D(H  60,C  26,C  24,H  61)     -0.2410         0.023998   
    331. D(H  60,C  26,C  24,C  23)    179.7957         0.023998   
    332. D(C  20,C  26,C  24,H  61)    179.4686         0.023998   
    333. D(C  20,C  26,C  24,C  23)     -0.4946         0.023998   
    334. D(H  60,C  26,C  20,C  21)    179.6567         0.022612   
    335. D(H  60,C  26,C  20,P   2)      0.3289         0.022612   
    336. D(C  24,C  26,C  20,C  21)     -0.0539         0.022612   
    337. D(C  24,C  26,C  20,P   2)   -179.3816         0.022612   
    338. D(C  28,C  27,P   2,C  20)    172.6117         0.010000   
    339. D(C  28,C  27,P   2,C  13)     68.1394         0.010000   
    340. D(C  28,C  27,P   2,Ru  0)    -58.5902         0.010000   
    341. D(C  32,C  27,P   2,C  13)   -115.6734         0.010000   
    342. D(C  32,C  27,P   2,Ru  0)    117.5971         0.010000   
    343. D(H  65,C  28,C  27,C  32)   -179.5155         0.021762   
    344. D(H  65,C  28,C  27,P   2)     -3.1740         0.021762   
    345. D(C  29,C  28,C  27,C  32)      0.4340         0.021762   
    346. D(C  29,C  28,C  27,P   2)    176.7755         0.021762   
    347. D(H  66,C  29,C  28,H  65)     -0.5660         0.024489   
    348. D(H  66,C  29,C  28,C  27)    179.4852         0.024489   
    349. D(C  30,C  29,C  28,H  65)    179.3426         0.024489   
    350. D(C  30,C  29,C  28,C  27)     -0.6062         0.024489   
    351. D(H  67,C  30,C  29,H  66)      0.2241         0.023802   
    352. D(H  67,C  30,C  29,C  28)   -179.6841         0.023802   
    353. D(C  31,C  30,C  29,H  66)   -179.7700         0.023802   
    354. D(C  31,C  30,C  29,C  28)      0.3218         0.023802   
    355. D(H  68,C  31,C  30,H  67)     -0.1801         0.024260   
    356. D(H  68,C  31,C  30,C  29)    179.8140         0.024260   
    357. D(C  32,C  31,C  30,H  67)   -179.8649         0.024260   
    358. D(C  32,C  31,C  30,C  29)      0.1292         0.024260   
    359. D(H  64,C  32,C  31,H  68)     -0.0367         0.023930   
    360. D(H  64,C  32,C  31,C  30)    179.6498         0.023930   
    361. D(C  27,C  32,C  31,H  68)   -179.9840         0.023930   
    362. D(C  27,C  32,C  31,C  30)     -0.2976         0.023930   
    363. D(H  64,C  32,C  27,C  28)   -179.9308         0.022571   
    364. D(H  64,C  32,C  27,P   2)      3.9092         0.022571   
    365. D(C  31,C  32,C  27,C  28)      0.0167         0.022571   
    366. D(C  31,C  32,C  27,P   2)   -176.1432         0.022571   
    367. D(H  52,C  33,C  25,H  51)      0.1084         0.024015   
    368. D(H  52,C  33,C  25,C  14)    179.8448         0.024015   
    369. D(C  34,C  33,C  25,H  51)   -179.6296         0.024015   
    370. D(C  34,C  33,C  25,C  14)      0.1068         0.024015   
    371. D(H  53,C  34,C  33,H  52)      0.0600         0.024134   
    372. D(H  53,C  34,C  33,C  25)    179.7980         0.024134   
    373. D(C  35,C  34,C  33,H  52)   -179.8431         0.024134   
    374. D(C  35,C  34,C  33,C  25)     -0.1050         0.024134   
    375. D(H  49,C  35,C  34,H  53)     -1.0225         0.023999   
    376. D(H  49,C  35,C  34,C  33)    178.8810         0.023999   
    377. D(C   3,C  35,C  34,H  53)    179.9521         0.023999   
    378. D(C   3,C  35,C  34,C  33)     -0.1445         0.023999   
    379. D(H  49,C  35,C   3,C  14)   -178.6430         0.022478   
    380. D(H  49,C  35,C   3,P   1)      0.5756         0.022478   
    381. D(C  34,C  35,C   3,C  14)      0.3852         0.022478   
    382. D(C  34,C  35,C   3,P   1)    179.6037         0.022478   
    383. D(C  37,C  36,C   6,H  44)    178.7369         0.021870   
    384. D(C  37,C  36,C   6,C   5)     -0.8984         0.021870   
    385. D(P   1,C  36,C   6,H  44)      3.6650         0.021870   
    386. D(P   1,C  36,C   6,C   5)   -175.9704         0.021870   
    387. D(C  37,C  36,P   1,C   3)    119.8075         0.010000   
    388. D(C  37,C  36,P   1,Ru  0)   -118.2984         0.010000   
    389. D(C   6,C  36,P   1,C   7)   -169.5241         0.010000   
    390. D(C   6,C  36,P   1,C   3)    -65.3444         0.010000   
    391. D(C   6,C  36,P   1,Ru  0)     56.5497         0.010000   
    392. D(H  48,C  37,C  36,C   6)   -179.9545         0.022714   
    393. D(H  48,C  37,C  36,P   1)     -5.1357         0.022714   
    394. D(C  38,C  37,C  36,C   6)      0.2214         0.022714   
    395. D(C  38,C  37,C  36,P   1)    175.0402         0.022714   
    396. D(H  47,C  38,C  37,H  48)      0.5153         0.023819   
    397. D(H  47,C  38,C  37,C  36)   -179.6611         0.023819   
    398. D(C   4,C  38,C  37,H  48)   -179.4077         0.023819   
    399. D(C   4,C  38,C  37,C  36)      0.4159         0.023819   
    400. D(H  47,C  38,C   4,H  46)     -0.0312         0.024411   
    401. D(H  47,C  38,C   4,C   5)    179.6944         0.024411   
    402. D(C  37,C  38,C   4,H  46)    179.8914         0.024411   
    403. D(C  37,C  38,C   4,C   5)     -0.3831         0.024411   
    -----------------------------------------------------------------

Number of atoms                         .... 73
Number of degrees of freedom            .... 403


         *************************************************************
         *                GEOMETRY OPTIMIZATION CYCLE   1            *
         *************************************************************
---------------------------------
CARTESIAN COORDINATES (ANGSTROEM)
---------------------------------
  Ru    -0.003858   -0.163889   -0.271867
  P     -2.297768   -0.007621   -0.144184
  P      2.287169   -0.017737   -0.156253
  C     -2.911647   -0.599535    1.515487
  C     -4.685018   -2.651731   -3.192189
  C     -3.814101   -3.233195   -2.253048
  C     -3.131150   -2.427303   -1.330945
  C     -3.114479    1.658920   -0.250013
  C     -2.362022    2.783003   -0.650011
  C     -2.965845    4.049809   -0.733501
  C     -4.323605    4.206007   -0.412900
  C     -5.079741    3.093236   -0.002279
  C     -4.480344    1.827521    0.080460
  C      3.095834    1.619147   -0.504111
  C     -2.171085   -0.211966    2.659457
  C      2.525407    2.481327   -1.466488
  C      3.129740    3.712566   -1.768240
  C      4.306822    4.101575   -1.107417
  C      4.880093    3.254350   -0.144042
  C      4.281389    2.019500    0.155693
  C      3.362704   -1.179941   -1.143988
  C      2.942300   -2.524227   -1.283972
  C      3.712726   -3.442373   -2.014309
  C      4.905709   -3.029079   -2.631533
  C      5.326691   -1.695059   -2.509044
  C     -2.568324   -0.625371    3.940427
  C      4.565187   -0.776227   -1.766802
  C      2.861239   -0.364185    1.583653
  C      2.371020    0.461983    2.626799
  C      2.717629    0.203094    3.961166
  C      3.546125   -0.888449    4.277679
  C      4.031734   -1.715720    3.252536
  C      3.695943   -1.456310    1.912370
  C     -3.707207   -1.433122    4.099439
  C     -4.445772   -1.827475    2.971604
  C     -4.052788   -1.416625    1.686379
  C     -3.323064   -1.022952   -1.319037
  C     -4.200392   -0.449774   -2.266112
  C     -4.872058   -1.261108   -3.197986
  H     -1.298755    2.649696   -0.870975
  H     -2.370191    4.915014   -1.041918
  H     -4.792336    5.193394   -0.473894
  H     -6.135714    3.213453    0.260137
  H     -5.065805    0.965746    0.415281
  H     -2.437173   -2.881612   -0.614882
  H     -3.660763   -4.317245   -2.244132
  H     -5.210149   -3.281332   -3.917206
  H     -5.544384   -0.800435   -3.929013
  H     -4.359007    0.632153   -2.270941
  H     -4.621891   -1.742439    0.810763
  H     -1.282015    0.416196    2.530447
  H     -1.984390   -0.319193    4.814389
  H     -4.015448   -1.757570    5.098333
  H     -5.331982   -2.459566    3.090250
  H      4.724103    1.366408    0.913741
  H      5.793845    3.555443    0.378349
  H      4.773395    5.064508   -1.338103
  H      2.675337    4.371244   -2.515380
  H      1.596354    2.180557   -1.961758
  H      1.997789   -2.839423   -0.827035
  H      4.900859    0.260216   -1.672911
  H      6.251546   -1.364623   -2.992861
  H      3.374252   -4.479068   -2.110682
  H      5.500286   -3.742732   -3.210487
  H      4.081472   -2.100363    1.116945
  H      1.717455    1.304389    2.376404
  H      2.338921    0.854023    4.755956
  H      3.811124   -1.091676    5.320045
  H      4.679547   -2.565105    3.492624
  H     -0.073143   -1.801039   -0.912445
  H     -0.035696   -1.231505   -1.614805
  H     -0.002430    0.718155   -1.563089
  H      0.035829    1.263937    0.526471

----------------------------
CARTESIAN COORDINATES (A.U.)
----------------------------
  NO LB      ZA    FRAG     MASS         X           Y           Z
   0 Ru   16.0000*   0   101.070   -0.007291   -0.309705   -0.513754
   1 P    15.0000    0    30.974   -4.342152   -0.014402   -0.272468
   2 P    15.0000    0    30.974    4.322123   -0.033518   -0.295275
   3 C     6.0000    0    12.011   -5.502215   -1.132957    2.863855
   4 C     6.0000    0    12.011   -8.853401   -5.011045   -6.032363
   5 C     6.0000    0    12.011   -7.207606   -6.109853   -4.257644
   6 C     6.0000    0    12.011   -5.917016   -4.586938   -2.515122
   7 C     6.0000    0    12.011   -5.885512    3.134904   -0.472456
   8 C     6.0000    0    12.011   -4.463575    5.259113   -1.228343
   9 C     6.0000    0    12.011   -5.604635    7.653030   -1.386116
  10 C     6.0000    0    12.011   -8.170429    7.948201   -0.780268
  11 C     6.0000    0    12.011   -9.599319    5.845369   -0.004307
  12 C     6.0000    0    12.011   -8.466623    3.453514    0.152047
  13 C     6.0000    0    12.011    5.850278    3.059744   -0.952632
  14 C     6.0000    0    12.011   -4.102756   -0.400558    5.025645
  15 C     6.0000    0    12.011    4.772328    4.689028   -2.771261
  16 C     6.0000    0    12.011    5.914351    7.015733   -3.341489
  17 C     6.0000    0    12.011    8.138714    7.750853   -2.092715
  18 C     6.0000    0    12.011    9.222039    6.149830   -0.272200
  19 C     6.0000    0    12.011    8.090653    3.816302    0.294217
  20 C     6.0000    0    12.011    6.354590   -2.229765   -2.161824
  21 C     6.0000    0    12.011    5.560141   -4.770098   -2.426355
  22 C     6.0000    0    12.011    7.016035   -6.505142   -3.806492
  23 C     6.0000    0    12.011    9.270447   -5.724130   -4.972877
  24 C     6.0000    0    12.011   10.065987   -3.203197   -4.741406
  25 C     6.0000    0    12.011   -4.853429   -1.181780    7.446328
  26 C     6.0000    0    12.011    8.626953   -1.466856   -3.338772
  27 C     6.0000    0    12.011    5.406958   -0.688210    2.992670
  28 C     6.0000    0    12.011    4.480578    0.873021    4.963931
  29 C     6.0000    0    12.011    5.135575    0.383792    7.485519
  30 C     6.0000    0    12.011    6.701205   -1.678925    8.083642
  31 C     6.0000    0    12.011    7.618873   -3.242241    6.146402
  32 C     6.0000    0    12.011    6.984320   -2.752027    3.613856
  33 C     6.0000    0    12.011   -7.005606   -2.708208    7.746817
  34 C     6.0000    0    12.011   -8.401292   -3.453427    5.615518
  35 C     6.0000    0    12.011   -7.658659   -2.677033    3.186794
  36 C     6.0000    0    12.011   -6.279681   -1.933099   -2.492619
  37 C     6.0000    0    12.011   -7.937591   -0.849950   -4.282331
  38 C     6.0000    0    12.011   -9.206855   -2.383149   -6.043318
  39 H     1.0000    0     1.008   -2.454291    5.007200   -1.645904
  40 H     1.0000    0     1.008   -4.479012    9.288030   -1.968940
  41 H     1.0000    0     1.008   -9.056203    9.814092   -0.895530
  42 H     1.0000    0     1.008  -11.594819    6.072546    0.491588
  43 H     1.0000    0     1.008   -9.572984    1.824995    0.784767
  44 H     1.0000    0     1.008   -4.605590   -5.445458   -1.161959
  45 H     1.0000    0     1.008   -6.917840   -8.158411   -4.240795
  46 H     1.0000    0     1.008   -9.845755   -6.200819   -7.402447
  47 H     1.0000    0     1.008  -10.477367   -1.512603   -7.424759
  48 H     1.0000    0     1.008   -8.237329    1.194596   -4.291457
  49 H     1.0000    0     1.008   -8.734108   -3.292733    1.532120
  50 H     1.0000    0     1.008   -2.422657    0.786496    4.781852
  51 H     1.0000    0     1.008   -3.749954   -0.603187    9.097877
  52 H     1.0000    0     1.008   -7.588097   -3.321326    9.634453
  53 H     1.0000    0     1.008  -10.075986   -4.647906    5.839726
  54 H     1.0000    0     1.008    8.927261    2.582137    1.726720
  55 H     1.0000    0     1.008   10.948780    6.718814    0.714976
  56 H     1.0000    0     1.008    9.020409    9.570533   -2.528648
  57 H     1.0000    0     1.008    5.055654    8.260454   -4.753379
  58 H     1.0000    0     1.008    3.016672    4.120656   -3.707185
  59 H     1.0000    0     1.008    3.775274   -5.365732   -1.562870
  60 H     1.0000    0     1.008    9.261281    0.491737   -3.161344
  61 H     1.0000    0     1.008   11.813710   -2.578764   -5.655688
  62 H     1.0000    0     1.008    6.376412   -8.464212   -3.988611
  63 H     1.0000    0     1.008   10.394034   -7.072738   -6.066941
  64 H     1.0000    0     1.008    7.712864   -3.969111    2.110720
  65 H     1.0000    0     1.008    3.245520    2.464938    4.490753
  66 H     1.0000    0     1.008    4.419920    1.613870    8.987454
  67 H     1.0000    0     1.008    7.201981   -2.062969   10.053428
  68 H     1.0000    0     1.008    8.843062   -4.847346    6.600103
  69 H     1.0000    0     1.008   -0.138220   -3.403470   -1.724271
  70 H     1.0000    0     1.008   -0.067456   -2.327207   -3.051539
  71 H     1.0000    0     1.008   -0.004592    1.357116   -2.953810
  72 H     1.0000    0     1.008    0.067707    2.388495    0.994886
* core charge reduced due to ECP

--------------------------------
INTERNAL COORDINATES (ANGSTROEM)
--------------------------------
 Ru     0   0   0     0.000000000000     0.00000000     0.00000000
 P      1   0   0     2.302769142666     0.00000000     0.00000000
 P      1   2   0     2.298593421819   170.32266066     0.00000000
 C      2   1   3     1.865936075614   110.82520720   287.45078086
 C      2   1   3     4.688348828172   115.65233116   170.20377413
 C      5   2   1     1.406620994464    58.92282170    60.14447602
 C      6   5   2     1.402197534827   120.20149621     1.37782858
 C      2   1   3     1.858917840961   119.69208873    44.29035749
 C      8   2   1     1.410585881023   119.74902353    11.59623616
 C      9   8   2     1.405834356197   120.38491940   180.05586508
 C     10   9   8     1.403814458540   120.14046221     0.28057060
 C     11  10   9     1.406630923369   119.90488293     0.24861884
 C     12  11  10     1.402910177793   120.08422791   359.67538394
 C      3   1   2     1.858583734957   118.70173616   307.31506304
 C      4   2   1     1.416795386252   117.35079399    41.61180746
 C     14   3   1     1.412413114092   119.30257327   325.85419906
 C     16  14   3     1.404358258962   120.51680914   181.24929254
 C     17  16  14     1.404826350171   120.14995026   359.63753352
 C     18  17  16     1.405176583455   119.82636451     0.09046500
 C     19  18  17     1.404685755727   120.16160922     0.19739150
 C      3   1   2     1.866310291475   120.54251695   181.43963248
 C     21   3   1     1.415429225807   118.20339899   322.42689438
 C     22  21   3     1.403545664509   120.64439034   180.08849546
 C     23  22  21     1.405341892530   120.14069449   359.14393745
 C     24  23  22     1.404221763058   119.70734579     0.29925664
 C     15   4   2     1.403419630063   120.56088512   180.34697434
 C     25  24  23     1.405369621418   120.31402080     0.37274022
 C      3   1   2     1.864632797749   109.99749314    63.87593661
 C     28   3   1     1.418105006514   118.14571869   301.40983335
 C     29  28   3     1.402746093878   120.45064628   176.77553356
 C     30  29  28     1.406432444888   120.19010063   359.39380368
 C     31  30  29     1.403962812460   119.78467380     0.32181966
 C     32  31  30     1.405736124362   120.31546661     0.12921901
 C     26  15   4     1.405276122986   120.13194434     0.14068703
 C     34  26  15     1.404636727079   119.77861887     0.10675201
 C     35  34  26     1.405360255373   120.34403636   359.89498893
 C      7   6   5     1.417453531888   120.59740754     0.94131641
 C     37   7   6     1.412511414075   118.71788372   359.10157207
 C      5   2   1     1.403157116982    60.76607340   238.48078465
 H      9   8   2     1.094135530377   118.59154584   358.73744835
 H     10   9   8     1.094762269002   119.68239487   179.79124833
 H     11  10   9     1.094697266904   120.11723028   179.73646706
 H     12  11  10     1.094711496639   120.10795216   179.26126550
 H     13  12  11     1.094315235747   119.99688609   179.03101013
 H      7   6   5     1.095786002821   119.99388255   181.30807524
 H      6   5   2     1.094877362904   120.09521428   181.84592555
 H      5   2   1     1.094444898865   178.06340011   359.81994773
 H     39   5   2     1.094825254520   120.10799086   178.05449589
 H     38  37   7     1.093502661540   119.63978470   180.04548219
 H     36  35  34     1.093954462791   119.96362011   178.88102045
 H     15   4   2     1.096210081711   119.05584289     0.34228873
 H     26  15   4     1.094775530181   119.68905009   179.87834016
 H     34  26  15     1.094563037025   120.12387080   179.84475804
 H     35  34  26     1.094981310204   120.04096220   179.79804712
 H     20  19  18     1.094148809150   120.00696977   180.63737678
 H     19  18  17     1.094756625481   120.12175348   180.38170428
 H     18  17  16     1.094598719812   120.10680556   180.42897752
 H     17  16  14     1.094786268499   119.70327799   180.09302000
 H     16  14   3     1.094940383130   118.89472496     2.17778557
 H     22  21   3     1.095555096518   119.21317936     0.98349851
 H     27  25  24     1.093483106277   119.91467814   179.79570098
 H     25  24  23     1.094816701832   120.09517562   180.40967323
 H     23  22  21     1.094800861723   119.70556718   179.84866346
 H     24  23  22     1.094536498914   120.11262626   180.69693824
 H     33  32  31     1.093680852569   120.03259144   179.64976463
 H     29  28   3     1.095213556383   119.09237138   356.82601807
 H     30  29  28     1.094906140455   119.69127582   179.48519839
 H     31  30  29     1.094555874081   120.06855311   180.31589689
 H     32  31  30     1.094878444823   120.10966409   179.81397968
 H      1   2   8     1.759375090141    92.52789278   206.84120734
 H     70   1   2     0.905030841776    72.26289240    93.31241454
 H      1   2   8     1.563732045590    90.48224292   309.83630704
 H      1   2   8     1.636339117203    86.43934276    34.66979334

---------------------------
INTERNAL COORDINATES (A.U.)
---------------------------
 Ru     0   0   0     0.000000000000     0.00000000     0.00000000
 P      1   0   0     4.351603029283     0.00000000     0.00000000
 P      1   2   0     4.343712060471   170.32266066     0.00000000
 C      2   1   3     3.526108166314   110.82520720   287.45078086
 C      2   1   3     8.859695305536   115.65233116   170.20377413
 C      5   2   1     2.658128453760    58.92282170    60.14447602
 C      6   5   2     2.649769326482   120.20149621     1.37782858
 C      2   1   3     3.512845624876   119.69208873    44.29035749
 C      8   2   1     2.665621003510   119.74902353    11.59623616
 C      9   8   2     2.656641922871   120.38491940   180.05586508
 C     10   9   8     2.652824869479   120.14046221     0.28057060
 C     11  10   9     2.658147216672   119.90488293     0.24861884
 C     12  11  10     2.651116026519   120.08422791   359.67538394
 C      3   1   2     3.512214256028   118.70173616   307.31506304
 C      4   2   1     2.677355267819   117.35079399    41.61180746
 C     14   3   1     2.669073973592   119.30257327   325.85419906
 C     16  14   3     2.653852503348   120.51680914   181.24929254
 C     17  16  14     2.654737067539   120.14995026   359.63753352
 C     18  17  16     2.655398912530   119.82636451     0.09046500
 C     19  18  17     2.654471382543   120.16160922     0.19739150
 C      3   1   2     3.526815331807   120.54251695   181.43963248
 C     21   3   1     2.674773598723   118.20339899   322.42689438
 C     22  21   3     2.652316922374   120.64439034   180.08849546
 C     23  22  21     2.655711301409   120.14069449   359.14393745
 C     24  23  22     2.653594563471   119.70734579     0.29925664
 C     15   4   2     2.652078751788   120.56088512   180.34697434
 C     25  24  23     2.655763701412   120.31402080     0.37274022
 C      3   1   2     3.523645328072   109.99749314    63.87593661
 C     28   3   1     2.679830091455   118.14571869   301.40983335
 C     29  28   3     2.650805952858   120.45064628   176.77553356
 C     30  29  28     2.657772146700   120.19010063   359.39380368
 C     31  30  29     2.653105217760   119.78467380     0.32181966
 C     32  31  30     2.656456291605   120.31546661     0.12921901
 C     26  15   4     2.655587014982   120.13194434     0.14068703
 C     34  26  15     2.654378731827   119.77861887     0.10675201
 C     35  34  26     2.655746002152   120.34403636   359.89498893
 C      7   6   5     2.678598982827   120.59740754     0.94131641
 C     37   7   6     2.669259733640   118.71788372   359.10157207
 C      5   2   1     2.651582673959    60.76607340   238.48078465
 H      9   8   2     2.067616505806   118.59154584   358.73744835
 H     10   9   8     2.068800870164   119.68239487   179.79124833
 H     11  10   9     2.068678034000   120.11723028   179.73646706
 H     12  11  10     2.068704924303   120.10795216   179.26126550
 H     13  12  11     2.067956099738   119.99688609   179.03101013
 H      7   6   5     2.070735446716   119.99388255   181.30807524
 H      6   5   2     2.069018366119   120.09521428   181.84592555
 H      5   2   1     2.068201127521   178.06340011   359.81994773
 H     39   5   2     2.068919895543   120.10799086   178.05449589
 H     38  37   7     2.066420557025   119.63978470   180.04548219
 H     36  35  34     2.067274337657   119.96362011   178.88102045
 H     15   4   2     2.071536839677   119.05584289     0.34228873
 H     26  15   4     2.068825930161   119.68905009   179.87834016
 H     34  26  15     2.068424376290   120.12387080   179.84475804
 H     35  34  26     2.069214798049   120.04096220   179.79804712
 H     20  19  18     2.067641599049   120.00696977   180.63737678
 H     19  18  17     2.068790205454   120.12175348   180.38170428
 H     18  17  16     2.068491806985   120.10680556   180.42897752
 H     17  16  14     2.068846222640   119.70327799   180.09302000
 H     16  14   3     2.069137457087   118.89472496     2.17778557
 H     22  21   3     2.070299097040   119.21317936     0.98349851
 H     27  25  24     2.066383602934   119.91467814   179.79570098
 H     25  24  23     2.068903733305   120.09517562   180.40967323
 H     23  22  21     2.068873799838   119.70556718   179.84866346
 H     24  23  22     2.068374226528   120.11262626   180.69693824
 H     33  32  31     2.066757289268   120.03259144   179.64976463
 H     29  28   3     2.069653679723   119.09237138   356.82601807
 H     30  29  28     2.069072747808   119.69127582   179.48519839
 H     31  30  29     2.068410840289   120.06855311   180.31589689
 H     32  31  30     2.069020410649   120.10966409   179.81397968
 H      1   2   8     3.324737087210    92.52789278   206.84120734
 H     70   1   2     1.710260433708    72.26289240    93.31241454
 H      1   2   8     2.955025313001    90.48224292   309.83630704
 H      1   2   8     3.092232793736    86.43934276    34.66979334

---------------------
BASIS SET INFORMATION
---------------------
There are 4 groups of distinct atoms

 Group   1 Type Ru  : 7s6p5d1f contracted to 5s3p2d1f pattern {31111/411/41/1}
 Group   2 Type P   : 10s7p1d contracted to 4s3p1d pattern {5311/511/1}
 Group   3 Type C   : 7s4p1d contracted to 3s2p1d pattern {511/31/1}
 Group   4 Type H   : 4s1p contracted to 2s1p pattern {31/1}

Atom   0Ru   basis set group =>   1
Atom   1P    basis set group =>   2
Atom   2P    basis set group =>   2
Atom   3C    basis set group =>   3
Atom   4C    basis set group =>   3
Atom   5C    basis set group =>   3
Atom   6C    basis set group =>   3
Atom   7C    basis set group =>   3
Atom   8C    basis set group =>   3
Atom   9C    basis set group =>   3
Atom  10C    basis set group =>   3
Atom  11C    basis set group =>   3
Atom  12C    basis set group =>   3
Atom  13C    basis set group =>   3
Atom  14C    basis set group =>   3
Atom  15C    basis set group =>   3
Atom  16C    basis set group =>   3
Atom  17C    basis set group =>   3
Atom  18C    basis set group =>   3
Atom  19C    basis set group =>   3
Atom  20C    basis set group =>   3
Atom  21C    basis set group =>   3
Atom  22C    basis set group =>   3
Atom  23C    basis set group =>   3
Atom  24C    basis set group =>   3
Atom  25C    basis set group =>   3
Atom  26C    basis set group =>   3
Atom  27C    basis set group =>   3
Atom  28C    basis set group =>   3
Atom  29C    basis set group =>   3
Atom  30C    basis set group =>   3
Atom  31C    basis set group =>   3
Atom  32C    basis set group =>   3
Atom  33C    basis set group =>   3
Atom  34C    basis set group =>   3
Atom  35C    basis set group =>   3
Atom  36C    basis set group =>   3
Atom  37C    basis set group =>   3
Atom  38C    basis set group =>   3
Atom  39H    basis set group =>   4
Atom  40H    basis set group =>   4
Atom  41H    basis set group =>   4
Atom  42H    basis set group =>   4
Atom  43H    basis set group =>   4
Atom  44H    basis set group =>   4
Atom  45H    basis set group =>   4
Atom  46H    basis set group =>   4
Atom  47H    basis set group =>   4
Atom  48H    basis set group =>   4
Atom  49H    basis set group =>   4
Atom  50H    basis set group =>   4
Atom  51H    basis set group =>   4
Atom  52H    basis set group =>   4
Atom  53H    basis set group =>   4
Atom  54H    basis set group =>   4
Atom  55H    basis set group =>   4
Atom  56H    basis set group =>   4
Atom  57H    basis set group =>   4
Atom  58H    basis set group =>   4
Atom  59H    basis set group =>   4
Atom  60H    basis set group =>   4
Atom  61H    basis set group =>   4
Atom  62H    basis set group =>   4
Atom  63H    basis set group =>   4
Atom  64H    basis set group =>   4
Atom  65H    basis set group =>   4
Atom  66H    basis set group =>   4
Atom  67H    basis set group =>   4
Atom  68H    basis set group =>   4
Atom  69H    basis set group =>   4
Atom  70H    basis set group =>   4
Atom  71H    basis set group =>   4
Atom  72H    basis set group =>   4
---------------------------------
AUXILIARY/J BASIS SET INFORMATION
---------------------------------
There are 4 groups of distinct atoms

 Group   1 Type Ru  : 11s5p5d3f3g contracted to 8s5p5d2f3g pattern {41111111/11111/11111/21/111}
 Group   2 Type P   : 14s5p5d2f1g contracted to 8s4p3d1f1g pattern {71111111/2111/311/2/1}
 Group   3 Type C   : 12s5p4d2f1g contracted to 6s4p3d1f1g pattern {711111/2111/211/2/1}
 Group   4 Type H   : 5s2p1d contracted to 3s1p1d pattern {311/2/1}

Atom   0Ru   basis set group =>   1
Atom   1P    basis set group =>   2
Atom   2P    basis set group =>   2
Atom   3C    basis set group =>   3
Atom   4C    basis set group =>   3
Atom   5C    basis set group =>   3
Atom   6C    basis set group =>   3
Atom   7C    basis set group =>   3
Atom   8C    basis set group =>   3
Atom   9C    basis set group =>   3
Atom  10C    basis set group =>   3
Atom  11C    basis set group =>   3
Atom  12C    basis set group =>   3
Atom  13C    basis set group =>   3
Atom  14C    basis set group =>   3
Atom  15C    basis set group =>   3
Atom  16C    basis set group =>   3
Atom  17C    basis set group =>   3
Atom  18C    basis set group =>   3
Atom  19C    basis set group =>   3
Atom  20C    basis set group =>   3
Atom  21C    basis set group =>   3
Atom  22C    basis set group =>   3
Atom  23C    basis set group =>   3
Atom  24C    basis set group =>   3
Atom  25C    basis set group =>   3
Atom  26C    basis set group =>   3
Atom  27C    basis set group =>   3
Atom  28C    basis set group =>   3
Atom  29C    basis set group =>   3
Atom  30C    basis set group =>   3
Atom  31C    basis set group =>   3
Atom  32C    basis set group =>   3
Atom  33C    basis set group =>   3
Atom  34C    basis set group =>   3
Atom  35C    basis set group =>   3
Atom  36C    basis set group =>   3
Atom  37C    basis set group =>   3
Atom  38C    basis set group =>   3
Atom  39H    basis set group =>   4
Atom  40H    basis set group =>   4
Atom  41H    basis set group =>   4
Atom  42H    basis set group =>   4
Atom  43H    basis set group =>   4
Atom  44H    basis set group =>   4
Atom  45H    basis set group =>   4
Atom  46H    basis set group =>   4
Atom  47H    basis set group =>   4
Atom  48H    basis set group =>   4
Atom  49H    basis set group =>   4
Atom  50H    basis set group =>   4
Atom  51H    basis set group =>   4
Atom  52H    basis set group =>   4
Atom  53H    basis set group =>   4
Atom  54H    basis set group =>   4
Atom  55H    basis set group =>   4
Atom  56H    basis set group =>   4
Atom  57H    basis set group =>   4
Atom  58H    basis set group =>   4
Atom  59H    basis set group =>   4
Atom  60H    basis set group =>   4
Atom  61H    basis set group =>   4
Atom  62H    basis set group =>   4
Atom  63H    basis set group =>   4
Atom  64H    basis set group =>   4
Atom  65H    basis set group =>   4
Atom  66H    basis set group =>   4
Atom  67H    basis set group =>   4
Atom  68H    basis set group =>   4
Atom  69H    basis set group =>   4
Atom  70H    basis set group =>   4
Atom  71H    basis set group =>   4
Atom  72H    basis set group =>   4
-------------------------
ECP PARAMETER INFORMATION
-------------------------

 Group 1, Type Ru ECP Def2-ECP (replacing 28 core electrons, lmax=3)

Atom   0Ru   ECP group =>   1



           ************************************************************
           *        Program running with 32 parallel MPI-processes    *
           *              working on a common directory               *
           ************************************************************
------------------------------------------------------------------------------
                             ORCA STARTUP CALCULATIONS
                           -- RI-GTO INTEGRALS CHOSEN --
------------------------------------------------------------------------------
------------------------------------------------------------------------------
                   ___                                                        
                  /   \      - P O W E R E D   B Y -                         
                 /     \                                                     
                 |  |  |   _    _      __       _____    __    __             
                 |  |  |  | |  | |    /  \     |  _  \  |  |  /  |          
                  \  \/   | |  | |   /    \    | | | |  |  | /  /          
                 / \  \   | |__| |  /  /\  \   | |_| |  |  |/  /          
                |  |  |   |  __  | /  /__\  \  |    /   |      \           
                |  |  |   | |  | | |   __   |  |    \   |  |\   \          
                \     /   | |  | | |  |  |  |  | |\  \  |  | \   \       
                 \___/    |_|  |_| |__|  |__|  |_| \__\ |__|  \__/        
                                                                              
                      - O R C A' S   B I G   F R I E N D -                    
                                      &                                       
                       - I N T E G R A L  F E E D E R -                       
                                                                              
 v1 FN, 2020, v2 2021, v3 2022-2024                                           
------------------------------------------------------------------------------


----------------------
SHARK INTEGRAL PACKAGE
----------------------

Number of atoms                             ...     73
Number of basis functions                   ...    741
Number of shells                            ...    345
Maximum angular momentum                    ...      3
Integral batch strategy                     ... SHARK/LIBINT Hybrid
RI-J (if used) integral strategy            ... SPLIT-RIJ (Revised 2003 algorithm where possible)
Printlevel                                  ...      1
Contraction scheme used                     ... SEGMENTED contraction
Prescreening option                         ... SCHWARTZ
   Thresh                                   ... 2.500e-11
   Tcut                                     ... 2.500e-12
   Tpresel                                  ... 2.500e-12 
Coulomb Range Separation                    ... NOT USED
Exchange Range Separation                   ... Long Range
   Mu parameter                             ... 3.000e-01
   Scaling (regular/separated)              ... 1.670e-01 8.330e-01
Robust (split-)RI terms used:
  metric    (central integrals)             ... YES
  density   (r.h.s.  integrals)             ... YES
  potential (l.h.s.  integrals)             ... YES
Multipole approximations                    ... NOT USED
Finite Nucleus Model                        ... NOT USED
CABS basis                                  ... NOT available
Auxiliary Coulomb fitting basis             ... AVAILABLE
   # of basis functions in Aux-J            ...   2329
   # of shells in Aux-J                     ...    767
   Maximum angular momentum in Aux-J        ...      4
Auxiliary J/K fitting basis                 ... NOT available
Auxiliary Correlation fitting basis         ... NOT available
Auxiliary 'external' fitting basis          ... NOT available

Checking pre-screening integrals            ... done (  0.0 sec) Dimension = 345
   => SHARK Basis and OBASIS are compatible. Storing Pre-screening
Shell pair information
Shell pair cut-off parameter TPreSel        ...   2.5e-12
Total number of shell pairs                 ...     59685
Shell pairs after pre-screening             ...     34213
Total number of primitive shell pairs       ...    216784
Primitive shell pairs kept                  ...     72949
          la=0 lb=0:  10753 shell pairs
          la=1 lb=0:  12920 shell pairs
          la=1 lb=1:   3911 shell pairs
          la=2 lb=0:   3847 shell pairs
          la=2 lb=1:   2248 shell pairs
          la=2 lb=2:    316 shell pairs
          la=3 lb=0:    123 shell pairs
          la=3 lb=1:     75 shell pairs
          la=3 lb=2:     19 shell pairs
          la=3 lb=3:      1 shell pairs

Checking whether 4 symmetric matrices of dimension 741 fit in memory
:Max Core in MB      =   4096.00
 MB in use           =     44.44
 MB left             =   4051.56
 MB needed           =      8.39
 Data fit in memory  = YES
Calculating RI/J V-Matrix + Cholesky decomp.... done (  0.2 sec)
Calculating Nuclear repulsion               ... done (  0.0 sec) ENN=   4774.741462817796 Eh

Diagonalization of the overlap matrix:
Smallest eigenvalue                        ... 2.849e-04
Time for diagonalization                   ...    0.077 sec
Threshold for overlap eigenvalues          ... 1.000e-07
Number of eigenvalues below threshold      ... 0
Time for construction of square roots      ...    0.030 sec
Total time needed                          ...    0.113 sec

-------------------
DFT GRID GENERATION
-------------------

General Integration Accuracy     IntAcc      ... 4.959
Radial Grid Type                 RadialGrid  ... OptM3 with GC (2021)
Angular Grid (max. ang.)         AngularGrid ... 6 (Lebedev-590)
Angular grid pruning method      GridPruning ... 4 (adaptive)
Weight generation scheme         WeightScheme... mBecke (2022)
Basis function cutoff            BFCut       ... 1.0000e-11
Integration weight cutoff        WCut        ... 1.0000e-14
Partially contracted basis set               ... off
Rotationally invariant grid construction     ... off
Angular grids for H and He will be reduced by one unit

Total number of grid points                  ...   843969
Total number of batches                      ...    13224
Average number of points per batch           ...       63
Average number of grid points per atom       ...    11561

--------------------
COSX GRID GENERATION
--------------------

GRIDX 1
-------
General Integration Accuracy     IntAcc      ... 4.020
Radial Grid Type                 RadialGrid  ... OptM3 with GC (2021)
Angular Grid (max. ang.)         AngularGrid ... 2 (Lebedev-110)
Angular grid pruning method      GridPruning ... 4 (adaptive)
Weight generation scheme         WeightScheme... mBecke (2022)
Basis function cutoff            BFCut       ... 1.0000e-11
Integration weight cutoff        WCut        ... 1.0000e-14
Partially contracted basis set               ... on
Rotationally invariant grid construction     ... off
Angular grids for H and He will be reduced by one unit

Total number of grid points                  ...    94745
Total number of batches                      ...      780
Average number of points per batch           ...      121
Average number of grid points per atom       ...     1298
UseSFitting                                  ... on

GRIDX 2
-------
General Integration Accuracy     IntAcc      ... 4.338
Radial Grid Type                 RadialGrid  ... OptM3 with GC (2021)
Angular Grid (max. ang.)         AngularGrid ... 3 (Lebedev-194)
Angular grid pruning method      GridPruning ... 4 (adaptive)
Weight generation scheme         WeightScheme... mBecke (2022)
Basis function cutoff            BFCut       ... 1.0000e-11
Integration weight cutoff        WCut        ... 1.0000e-14
Partially contracted basis set               ... on
Rotationally invariant grid construction     ... off
[...]
                           ORCA ORBITAL LOCALIZATION
------------------------------------------------------------------------------

Input orbitals are from                  ... 15h_opt.gbw
Output orbitals are to                   ... 15h_opt.loc
Max. number of iterations                ... 128
Localizations seeded randomly            ... on
Convergence tolerance                    ... 1.000e-06
Threshold for strong local MOs           ... 9.500e-01
Threshold for bond MOs                   ... 8.500e-01
Operator                                 ... 0
Orbital range for localization           ... 40 to 147
Localization criterion                   ... NEW-BOYS
Doing the dipole integrals               ... o.k.
Initial value of the localization sum :  7468.326976
ITERATION   0 : L= 7906.4479277648 DL=  4.38e+02 (AVERGE_DL)=    0.2753646852 
ITERATION   1 : L= 8000.3253308657 DL=  9.39e+01 (AVERGE_DL)=    0.1274652391 
ITERATION   2 : L= 8007.2807876772 DL=  6.96e+00 (AVERGE_DL)=    0.0346955727 
ITERATION   3 : L= 8009.0778401053 DL=  1.80e+00 (AVERGE_DL)=    0.0176356554 
ITERATION   4 : L= 8010.0210065188 DL=  9.43e-01 (AVERGE_DL)=    0.0127763086 
ITERATION   5 : L= 8010.7580772214 DL=  7.37e-01 (AVERGE_DL)=    0.0112944687 
ITERATION   6 : L= 8011.4741379450 DL=  7.16e-01 (AVERGE_DL)=    0.0111323322 
ITERATION   7 : L= 8011.8436417015 DL=  3.70e-01 (AVERGE_DL)=    0.0079968815 
ITERATION   8 : L= 8011.9585590031 DL=  1.15e-01 (AVERGE_DL)=    0.0044596825 
ITERATION   9 : L= 8011.9891998657 DL=  3.06e-02 (AVERGE_DL)=    0.0023028292 
ITERATION  10 : L= 8011.9979698191 DL=  8.77e-03 (AVERGE_DL)=    0.0012319976 
ITERATION  11 : L= 8012.0009238422 DL=  2.95e-03 (AVERGE_DL)=    0.0007150200 
ITERATION  12 : L= 8012.0021589467 DL=  1.24e-03 (AVERGE_DL)=    0.0004623417 
ITERATION  13 : L= 8012.0027963756 DL=  6.37e-04 (AVERGE_DL)=    0.0003321445 
ITERATION  14 : L= 8012.0031755131 DL=  3.79e-04 (AVERGE_DL)=    0.0002561590 
ITERATION  15 : L= 8012.0034174917 DL=  2.42e-04 (AVERGE_DL)=    0.0002046443 
ITERATION  16 : L= 8012.0035764671 DL=  1.59e-04 (AVERGE_DL)=    0.0001658732 
ITERATION  17 : L= 8012.0036820223 DL=  1.06e-04 (AVERGE_DL)=    0.0001351609 
ITERATION  18 : L= 8012.0037523763 DL=  7.04e-05 (AVERGE_DL)=    0.0001103457 
ITERATION  19 : L= 8012.0037993280 DL=  4.70e-05 (AVERGE_DL)=    0.0000901440 
ITERATION  20 : L= 8012.0038306875 DL=  3.14e-05 (AVERGE_DL)=    0.0000736709 
ITERATION  21 : L= 8012.0038516363 DL=  2.09e-05 (AVERGE_DL)=    0.0000602130 
ITERATION  22 : L= 8012.0038656334 DL=  1.40e-05 (AVERGE_DL)=    0.0000492188 
ITERATION  23 : L= 8012.0038749886 DL=  9.36e-06 (AVERGE_DL)=    0.0000402381 
ITERATION  24 : L= 8012.0038812420 DL=  6.25e-06 (AVERGE_DL)=    0.0000328979 
ITERATION  25 : L= 8012.0038854219 DL=  4.18e-06 (AVERGE_DL)=    0.0000268965 
ITERATION  26 : L= 8012.0038882161 DL=  2.79e-06 (AVERGE_DL)=    0.0000219910 
ITERATION  27 : L= 8012.0038900844 DL=  1.87e-06 (AVERGE_DL)=    0.0000179815 
ITERATION  28 : L= 8012.0038913344 DL=  1.25e-06 (AVERGE_DL)=    0.0000147087 
ITERATION  29 : L= 8012.0038921700 DL=  8.36e-07 (AVERGE_DL)=    0.0000120253 
LOCALIZATION SUM CONVERGED


--------------------------------------------------------------------------------
                    LOCALIZED MOLECULAR ORBITAL COMPOSITIONS
--------------------------------------------------------------------------------

The Mulliken populations for each LMO on each atom are computed
The LMO`s will be ordered according to atom index and type
  (A) Strongly localized MO`s have populations of >=0.950 on one atom
  (B) Two center bond orbitals have populations of >=0.850 on two atoms
  (C) Other MO`s are considered to be `delocalized`

FOUND  -  13 strongly local MO`s
       -  95 two center bond MO`s
       -   0 significantly delocalized MO`s

Rather strongly localized orbitals:
MO  52:   2P  -   1.000665
MO  51:   2P  -   1.000451
MO  50:   2P  -   0.999717
MO  49:   1P  -   1.000719
MO  48:   1P  -   1.000440
MO  47:   1P  -   0.999605
MO  46:   0Ru -   0.951209
MO  45:   0Ru -   0.982553
MO  44:   0Ru -   0.983482
MO  43:   0Ru -   0.963137
MO  42:   0Ru -   0.976248
MO  41:   0Ru -   0.972415
MO  40:   0Ru -   0.956911
Bond-like localized orbitals:
MO 147:  72H  -   0.578627  and   0Ru -   0.364364
MO 146:  71H  -   0.526748  and   0Ru -   0.448885
MO 145:  70H  -   0.396997  and  69H  -   0.466918
MO 144:  68H  -   0.509734  and  31C  -   0.520203
MO 143:  67H  -   0.508533  and  30C  -   0.521294
MO 142:  66H  -   0.509711  and  29C  -   0.521963
MO 141:  65H  -   0.483989  and  28C  -   0.543145
MO 140:  64H  -   0.496826  and  32C  -   0.533529
MO 139:  63H  -   0.508436  and  23C  -   0.521269
MO 138:  62H  -   0.509453  and  22C  -   0.521922
MO 137:  61H  -   0.509662  and  24C  -   0.519730
MO 136:  60H  -   0.495937  and  26C  -   0.533947
MO 135:  59H  -   0.497252  and  21C  -   0.532719
MO 134:  58H  -   0.490092  and  15C  -   0.538034
MO 133:  57H  -   0.510641  and  16C  -   0.521265
MO 132:  56H  -   0.508923  and  17C  -   0.520856
MO 131:  55H  -   0.510217  and  18C  -   0.520738
MO 130:  54H  -   0.500160  and  19C  -   0.531998
MO 129:  53H  -   0.509821  and  34C  -   0.520318
MO 128:  52H  -   0.508418  and  33C  -   0.521466
MO 127:  51H  -   0.509738  and  25C  -   0.521525
MO 126:  50H  -   0.487699  and  14C  -   0.537660
MO 125:  49H  -   0.496693  and  35C  -   0.531156
MO 124:  48H  -   0.495689  and  37C  -   0.533840
MO 123:  47H  -   0.509626  and  38C  -   0.519396
MO 122:  46H  -   0.508717  and   4C  -   0.521146
MO 121:  45H  -   0.509592  and   5C  -   0.521584
MO 120:  44H  -   0.497956  and   6C  -   0.531630
MO 119:  43H  -   0.503665  and  12C  -   0.527812
MO 118:  42H  -   0.510552  and  11C  -   0.520378
MO 117:  41H  -   0.508944  and  10C  -   0.520760
MO 116:  40H  -   0.510628  and   9C  -   0.521513
MO 115:  39H  -   0.487048  and   8C  -   0.543276
MO 114:  38C  -   0.512692  and  37C  -   0.506540
MO 113:  38C  -   0.468820  and   4C  -   0.462847
MO 112:  38C  -   0.470678  and   4C  -   0.460840
MO 111:  37C  -   0.437218  and  36C  -   0.492879
MO 110:  37C  -   0.443774  and  36C  -   0.477407
MO 109:  36C  -   0.525227  and   6C  -   0.484631
MO 108:  36C  -   0.578572  and   1P  -   0.447697
MO 107:  35C  -   0.455242  and  34C  -   0.471063
MO 106:  35C  -   0.459686  and  34C  -   0.467827
MO 105:  35C  -   0.488456  and   3C  -   0.521349
MO 104:  34C  -   0.506738  and  33C  -   0.512952
MO 103:  33C  -   0.456671  and  25C  -   0.470086
MO 102:  33C  -   0.459920  and  25C  -   0.466519
MO 101:  32C  -   0.508562  and  31C  -   0.511205
MO 100:  32C  -   0.436051  and  27C  -   0.486266
MO  99:  32C  -   0.444828  and  27C  -   0.482674
MO  98:  31C  -   0.471851  and  30C  -   0.458261
MO  97:  31C  -   0.469220  and  30C  -   0.459378
MO  96:  30C  -   0.513063  and  29C  -   0.506283
MO  95:  29C  -   0.470620  and  28C  -   0.455137
MO  94:  29C  -   0.470107  and  28C  -   0.457603
MO  93:  28C  -   0.485293  and  27C  -   0.527033
MO  92:  27C  -   0.578514  and   2P  -   0.450453
MO  91:  26C  -   0.507151  and  24C  -   0.512389
MO  90:  26C  -   0.441068  and  20C  -   0.479861
MO  89:  26C  -   0.437454  and  20C  -   0.491714
MO  88:  25C  -   0.508480  and  14C  -   0.510063
MO  87:  24C  -   0.469642  and  23C  -   0.460994
MO  86:  24C  -   0.470540  and  23C  -   0.459704
MO  85:  23C  -   0.511791  and  22C  -   0.507761
MO  84:  22C  -   0.471481  and  21C  -   0.456248
MO  83:  22C  -   0.467276  and  21C  -   0.464504
MO  82:  21C  -   0.485502  and  20C  -   0.526075
MO  81:  20C  -   0.581682  and   2P  -   0.443876
MO  80:  19C  -   0.453704  and  18C  -   0.474649
MO  79:  19C  -   0.457687  and  18C  -   0.469810
MO  78:  19C  -   0.490054  and  13C  -   0.518194
MO  77:  18C  -   0.506712  and  17C  -   0.512909
MO  76:  17C  -   0.453975  and  16C  -   0.473953
MO  75:  17C  -   0.459462  and  16C  -   0.467456
MO  74:  16C  -   0.513731  and  15C  -   0.504924
MO  73:  15C  -   0.436841  and  13C  -   0.485449
MO  72:  15C  -   0.420207  and  13C  -   0.505706
MO  71:  14C  -   0.442884  and   3C  -   0.480830
MO  70:  14C  -   0.430541  and   3C  -   0.488994
MO  69:  13C  -   0.571201  and   2P  -   0.458057
MO  68:  12C  -   0.457868  and  11C  -   0.473383
MO  67:  12C  -   0.455809  and  11C  -   0.472611
MO  66:  12C  -   0.492760  and   7C  -   0.514725
MO  65:  11C  -   0.507398  and  10C  -   0.512348
MO  64:  10C  -   0.458523  and   9C  -   0.470562
MO  63:  10C  -   0.456234  and   9C  -   0.472736
MO  62:   9C  -   0.516905  and   8C  -   0.501506
MO  61:   8C  -   0.430999  and   7C  -   0.492560
MO  60:   8C  -   0.420695  and   7C  -   0.507083
MO  59:   7C  -   0.569726  and   1P  -   0.457690
MO  58:   6C  -   0.467591  and   5C  -   0.465274
MO  57:   6C  -   0.457647  and   5C  -   0.471695
MO  56:   5C  -   0.508508  and   4C  -   0.511094
MO  55:   3C  -   0.576553  and   1P  -   0.453233
MO  54:   2P  -   0.788163  and   0Ru -   0.210356
MO  53:   1P  -   0.782091  and   0Ru -   0.214372
Localized MO's were stored in: 15h_opt.loc


-------------------------------------------------------------------------------
                          DFT DISPERSION CORRECTION                            
                                                                               
                                DFTD4 V3.4.0                                   
-------------------------------------------------------------------------------
The WB97X-D3BJ functional is recognized
Active option DFTDOPT                   ...         5   

-------------------------   ----------------
Dispersion correction           -0.245946459
-------------------------   ----------------


-------------------------   --------------------
FINAL SINGLE POINT ENERGY     -2169.546616955526
-------------------------   --------------------

                                *** OPTIMIZATION RUN DONE ***



           ************************************************************
           *        Program running with 32 parallel MPI-processes    *
           *              working on a common directory               *
           ************************************************************

------------------------------------------------------------------------------
                              ORCA PROPERTY CALCULATIONS
------------------------------------------------------------------------------

GBWName                                 ... 15h_opt.gbw
Number of atoms                         ...     73
Number of basis functions               ...    741
Max core memory                         ...   4096 MB

Electric properties:
Dipole moment                           ... YES
Quadrupole moment                       ...  NO
Static polarizability (Dipole/Dipole)   ...  NO
Static polarizability (Dipole/Quad.)    ...  NO
Static polarizability (Quad./Quad.)     ...  NO
Static polarizability (Velocity)        ...  NO
Static hyperpolarizability              ...  NO

Atomic electric properties:
Dipole moment                           ...  NO
Quadrupole moment                       ...  NO
Static polarizability                   ...  NO

Choice of electric origin               ... Center of mass
Position of electric origin             ...    -0.002441    -0.033901     0.016895

General magnetic properties:
Magnetizability                         ...  NO

EPR properties:
g-Tensor (aka g-matrix)                 ...  NO
Zero-Field splitting spin-orbit         ...  NO
Zero-field splitting spin-spin          ...  NO
Hyperfine couplings                     ...  NO (   0 nuclei)
Quadrupole couplings                    ...  NO (   0 nuclei)
Contact density                         ...  NO (   0 nuclei)

NMR properties:
Chemical shifts                         ...  NO (   0 nuclei)
Spin-rotation constants                 ...  NO (   0 nuclei)
Spin-spin couplings                     ...  NO (   0 nuclei,    0 pairs)

Choice of magnetic origin               ... GIAO
Position of magnetic origin             ...     0.000000     0.000000     0.000000

Properties with geometric perturbations:
SCF Hessian                             ...  NO
IR spectrum                             ...  NO
VCD spectrum                            ...  NO
X-ray spectroscopy properties:
SCF XES/XAS/RIXS spectra                ...  NO

SCF SOC stabilization energy            ...  NO
Diagonal Born-Oppenheimer correction    ...  NO

-------------
DIPOLE MOMENT
-------------

Method             : SCF
Type of density    : Electron Density
Multiplicity       :   1
Irrep              :   0
Energy             : -2169.3006704968252052 Eh
Basis              : AO
                                X                 Y                 Z
Electronic contribution:     -0.587375707     -16.570730618     -12.325068648
Nuclear contribution   :      0.614226203      16.192200703      12.592729265
                        -----------------------------------------
Total Dipole Moment    :      0.026850497      -0.378529915       0.267660617
                        -----------------------------------------
Magnitude (a.u.)       :      0.464379211
Magnitude (Debye)      :      1.180358150



--------------------
Rotational spectrum 
--------------------
 
Rotational constants in cm-1:             0.003559             0.001831             0.001814 
Rotational constants in MHz :           106.691148            54.898207            54.385379 

Dipole components along the rotational axes: 
x,y,z [a.u.] :     0.031218    -0.440401    -0.143945 
x,y,z [Debye]:     0.079349    -1.119411    -0.365880 

 

Dipole moment calculation done in   0.0 sec 

Maximum memory used throughout the entire PROP-calculation: 61.7 MB

--------------------------------
SUGGESTED CITATIONS FOR THIS RUN
--------------------------------

Below you find a list of papers that are relevant to this ORCA run
We neither can nor want to force you to cite these papers, but we appreciate if you do
You receive ORCA, which is the product of decades of hard work by many enthusiastic individuals, for free
The only thing we kindly ask in return is that you cite our papers,
We deeply appreciate it, if you show your appreciation for ORCA by not just citing the generic ORCA reference.

Please note that relegating all ORCA citations to the supporting information does *not* help us.
SI sections are not indexed - citations you put there will not count into any citation statistics
But we need these citations in order to attract the funding resources that allow us to do what we are doing

Therefore, if you are a happy ORCA user, please consider citing a few of the papers listed below in the main body of your paper

In addition to the list printed below, the program has created the file 15h_opt.bibtex that contains the list in bibtex format
You can import this file easily into all common literature databanks and citation aid programs

It goes without saying that in many instances, there are alternative algorithms to achieve similar
results as the ones you have gotten from ORCA. It is, of course, also the case that in some instances
ORCA just re-implements algorithms worked out by others. We are fully aware of that and we are also
fully appreciative of our colleagues work. Hence this citation list should not be read as indicating
that the listed papers, which are focused on our own work, are the only ones worth citing. It simply
meant to make it easier for users to cite ORCA specific papers. It is not a substitute for doing your
own literature research and citing the relevant literature in a scientifically appropriate manner.

List of essential papers. We consider these as the minimum necessary citations

  1. Neese, F.
     Software update: the ORCA program system, version 6.0
     WIRES Comput. Molec. Sci. 2025 15(1), e70019
     doi.org/10.1002/wcms.70019

List of papers to cite with high priority. The work reported in these papers was absolutely
necessary for this run to complete.
Our perspective: the developers of density functionals and basis sets usually get cited in chemistry papers
Good! But without the algorithms to do something with them, the functionals or basis sets would not do anything.
Hence, in our opinion, the algorithm design and method developments papers are equally worthy of getting cited

  1. Neese, F.
     An improvement of the resolution of the identity approximation for the formation of the Coulomb matrix
     J. Comp. Chem. 2003 24(14), 1740-1747
     doi.org/10.1002/jcc.10318
  2. Neese, F.; Wennmohs, F.; Hansen, A.; Becker, U.
     Efficient, approximate and parallel Hartree-Fock and hybrid DFT calculations. A 'chain-of-spheres' algorithm for the Hartree-Fock exchange
     Chem. Phys. 2009 356(1-3), 98-109
     doi.org/10.1016/j.chemphys.2008.10.036
  3. Caldeweyher, E.; Bannwarth, C.; Grimme, S.
     Extension of the D3 dispersion coefficient model
     J. Chem. Phys. 2017 147 , 034112
     doi.org/10.1063/1.4993215
  4. Caldeweyher, E.; Ehlert, S.; Hansen, A.; Neugebauer, H.; Spicher, S.; Bannwarth, C.; Grimme, S.
     A generally applicable atomic-charge dependent London dispersion correction
     J. Chem. Phys. 2019 150 , 154122
     doi.org/10.1063/1.5090222
  5. Helmich-Paris, B.; de Souza, B.; Neese, F.; Izsák, R.
     An improved chain of spheres for exchange algorithm
     J. Chem. Phys. 2021 155(10), 104109
     doi.org/10.1063/5.0058766
  6. Neese, F.
     The SHARK Integral Generation and Digestion System
     J. Comp. Chem. 2022 44(3), 381
     doi.org/10.1002/jcc.26942

List of suggested additional citations. These are papers that are important in the 'surrounding' of 
of this run, or papers that preceded the highly important papers. If you like your results we are grateful for a citation.

  1. Izsak, R.; Neese, F.
     An overlap fitted chain of spheres exchange method
     J. Chem. Phys. 2011 135 , 144105
     doi.org/10.1063/1.3646921
  2. Izsak, R.; Hansen, A.; Neese, F.
     The resolution of identity and chain of spheres approximations for the LPNO-CCSD singles Fock term
     Molec. Phys. 2012 110 , 2413-2417
     doi.org/10.1080/00268976.2012.687466
  3. Neese, F.
     The ORCA program system
     WIRES Comput. Molec. Sci. 2012 2(1), 73-78
     doi.org/10.1002/wcms.81
  4. Izsak, R.; Neese, F.; Klopper, W.
     Robust fitting techniques in the chain of spheres approximation to the Fock exchange: The role of the complementary space
     J. Chem. Phys. 2013 139 , 
     doi.org/10.1063/1.4819264
  5. Neese, F.
     Software update: the ORCA program system, version 4.0
     WIRES Comput. Molec. Sci. 2018 8(1), 1-6
     doi.org/10.1002/wcms.1327
  6. Neese, F.; Wennmohs, F.; Becker, U.; Riplinger, C.
     The ORCA quantum chemistry program package
     J. Chem. Phys. 2020 152(22), 224108
     doi.org/10.1063/5.0004608
  7. Neese, F.
     Software update: The ORCA program system—Version 5.0
     WIRES Comput. Molec. Sci. 2022 12(1), e1606
     doi.org/10.1002/wcms.1606

List of optional additional citations

  1. Neese, F.
     Approximate second-order SCF convergence for spin unrestricted wavefunctions
     Chem. Phys. Lett. 2000 325(1-3), 93-98
     doi.org/10.1016/s0009-2614(00)00662-x

Timings for individual modules:

Sum of individual times          ...     1523.493 sec (=  25.392 min)
Startup calculation              ...      158.792 sec (=   2.647 min)  10.4 %
SCF iterations                   ...     1074.437 sec (=  17.907 min)  70.5 %
Property calculations            ...        0.647 sec (=   0.011 min)   0.0 %
SCF Gradient evaluation          ...      285.785 sec (=   4.763 min)  18.8 %
Geometry relaxation              ...        0.604 sec (=   0.010 min)   0.0 %
Orbital localization             ...        3.227 sec (=   0.054 min)   0.2 %
                             ****ORCA TERMINATED NORMALLY****
TOTAL RUN TIME: 0 days 0 hours 25 minutes 51 seconds 44 msec
