
                                 *****************
                                 * O   R   C   A *
                                 *****************

                                            #,                                       
                                            ###                                      
                                            ####                                     
                                            #####                                    
                                            ######                                   
                                           ########,                                 
                                     ,,################,,,,,                         
                               ,,#################################,,                 
                          ,,##########################################,,             
                       ,#########################################, ''#####,          
                    ,#############################################,,   '####,        
                  ,##################################################,,,,####,       
                ,###########''''           ''''###############################       
              ,#####''   ,,,,##########,,,,          '''####'''          '####       
            ,##' ,,,,###########################,,,                        '##       
           ' ,,###''''                  '''############,,,                           
         ,,##''                                '''############,,,,        ,,,,,,###''
      ,#''                                            '''#######################'''  
     '                                                          ''''####''''         
             ,#######,   #######,   ,#######,      ##                                
            ,#'     '#,  ##    ##  ,#'     '#,    #''#        ,####,    ,#,          
            ##       ##  ##   ,#'  ##            #'  '#       #'       ,# #          
            ##       ##  #######   ##           ,######,      #####,      #          
            '#,     ,#'  ##    ##  '#,     ,#' ,#      #,     #,   #      #          
             '#######'   ##     ##  '#######'  #'      '#     '####' #    #          



                #########################################################
                #                        -***-                          #
                #          Department of theory and spectroscopy        #
                #                                                       #
                #                      Frank Neese                      #
                #                                                       #
                #     Directorship, Architecture, Infrastructure        #
                #                    SHARK, DRIVERS                     #
                #        Core code/Algorithms in most modules           #
                #                                                       #
                #        Max Planck Institute fuer Kohlenforschung      #
                #                Kaiser Wilhelm Platz 1                 #
                #                 D-45470 Muelheim/Ruhr                 #
                #                      Germany                          #
                #                                                       #
                #                  All rights reserved                  #
                #                        -***-                          #
                #########################################################


                         Program Version 6.1.1  -  RELEASE   -
                                (GIT: $487d211c$)
                          ($2025-11-21 10:33:24 +0100$)


 With contributions from (in alphabetic order):
[Max-Planck-Institut fuer Kohlenforschung]                               
  Daniel Aravena         : Magnetic Suceptibility                        
  Michael Atanasov       : Ab Initio Ligand Field Theory (pilot matlab implementation)
  Alexander A. Auer      : GIAO ZORA, VPT2 properties, NMR spectrum      
  Ute Becker             : All parallelization in ORCA, NUMFREQ, NUMCALC 
  Giovanni Bistoni       : ED, misc. LED, open-shell LED, HFLD           
  Dmytro Bykov           : pre 5.0 version of the SCF Hessian            
  Marcos Casanova-Páez   : Triplet and SCS-CIS(D). UHF-(DLPNO)-IP/EA/STEOM-CCSD. UHF-CVS-IP/STEOM-CCSD   
  Vijay G. Chilkuri      : MRCI spin determinant printing, contributions to CSF-ICE 
  Pauline Colinet        : FMM embedding                                 
  Dipayan Datta          : RHF DLPNO-CCSD density                        
  Achintya Kumar Dutta   : EOM-CC, STEOM-CC                              
  Nicolas Foglia         : Exact transition moments, OPA infrastructure, MCD improvements    
  Dmitry Ganyushin       : Spin-Orbit,Spin-Spin,Magnetic field MRCI      
  Miquel Garcia-Rates    : C-PCM and meta-GGA Hessian, CCSD/C-PCM, Gaussian charge scheme 
  Tiago L. C. Gouveia    : GS-ROHF, GS-ROCIS                             
  Yang Guo               : DLPNO-NEVPT2, F12-NEVPT2, CIM, IAO-localization        
  Andreas Hansen         : Spin unrestricted coupled pair/coupled cluster methods 
  Ingolf Harden          : AUTO-CI MPn and infrastructure                
  Benjamin Helmich-Paris : MC-RPA, TRAH-(SCF,CASSCF), AVAS, COSX integrals, SCF dyn. polar., MC-PDFT, srDFT 
  Lee Huntington         : MR-EOM, pCC                                   
  Robert Izsak           : Overlap fitted RIJCOSX, COSX-SCS-MP3, EOM     
  Riya Kayal             : Wick's Theorem for AUTO-CI, AUTO-CI UHF-CCSDT 
  Emily Kempfer          : AUTO-CI RHF CISDT and CCSDT, approximate NEVPT4
  Christian Kollmar      : KDIIS, OOCD, Brueckner-CCSD(T), CCSD density, CASPT2, CASPT2-K, improved NEVPT2 
  Axel Koslowski         : Symmetry handling                             
  Simone Kossmann        : meta-GGA functionals, TD-DFT gradient, OOMP2, (MP2 Hessian; deprecated post 5.0) 
  Lucas Lang             : DCDCAS, Hyperfine gauge corrections, ICE-SOC+SSC
  Marvin Lechner         : AUTO-CI (C++ implementation), FIC-MRCC        
  Spencer Leger          : CASSCF response                               
  Dagmar Lenk            : GEPOL surface, SMD, ORCA-2-JSON               
  Dimitrios Liakos       : Extrapolation schemes; Compound Job, Property file
  Dimitrios Manganas     : Further ROCIS development; embedding schemes. LFT, Crystal Embedding 
  Dimitrios Pantazis     : SARC Basis sets                               
  Anastasios Papadopoulos: AUTO-CI, single reference methods and gradients 
  Taras Petrenko         : pre 6.0 DFT Hessian and TD-DFT gradient,  ECA, NRVS 
  Petra Pikulova         : Analytic Raman intensities                    
  Peter Pinski           : DLPNO-MP2, DLPNO-MP2 Gradient                 
  Shashank Vittal Rao    : ES-AILFT, MagRelax                            
  Christoph Reimann      : Effective Core Potentials                     
  Marius Retegan         : Local ZFS, SOC                                
  Christoph Riplinger    : Optimizer, TS searches, QM/MM, DLPNO-CCSD(T), (RO)-DLPNO pert. Triples 
  Michael Roemelt        : Original ROCIS implementation, recursive CI coupling coefficients
  Masaaki Saitow         : Open-shell DLPNO-CCSD energy and density      
  Barbara Sandhoefer     : DKH picture change effects                    
  Yorick L. A. Schmerwitz: GMF and freeze-and-release deltaSCF, NEB S-IDPP initial path                    
  Kantharuban Sivalingam : CASSCF convergence/infrastructure, NEVPT2, NEVPT3, NEVPT4(SD), FIC-MRCI and CEPA variants
  Bernardo de Souza      : ESD, SOC TD-DFT                               
  Georgi L. Stoychev     : AutoAux, RI-MP2 NMR, DLPNO-MP2 response, X2C  
  Van Anh Tran           : RI-MP2 g-tensors                              
  Willem Van den Heuvel  : Paramagnetic NMR                              
  Zikuan Wang            : NOTCH, Electric field optimization            
  Frank Wennmohs         : Technical directorship and infrastructure     
  Hang Xu                : AUTO-CI-Response properties                   
                                                                         
[FACCTs GmbH]                                                            
  Markus Bursch, Nicolas Foglia, Miquel Garcia-Rates, Ingolf Harden, Hagen Neugebauer, Anastasios Papadopoulos, 
  Christoph Riplinger, Bernardo de Souza, Georgi L. Stoychev                                                    
                                                                 
  APM, various basis sets, CI-OPT, improved COSX, DLPNO-Multilevel,           
  DOCKER, DRACO, updates on ESD, Fragmentator, GOAT, IRC, LR-CPCM, L-BFGS, MBIS, meta-GGA TD-DFT gradient, ML-optimized integration grids, 
  MM, NACMEs, nearIR, NEB, NEB-TS, NL-DFT gradient (VV10), 2- and 3-layer-ONIOM, interface openCOSMO-RS, QMMM,   
  Crystal-QMMM, RESP, rigid body optimization, SF, symmetry and pop. for TD-DFT, various functionals, SOLVATOR                                   
                                                                         
[Other institutions]                                                     
  V. Asgeirsson          : NEB                                           
  Christoph Bannwarth    : sTDA-DFT, sTD-DFT, PBEh-3c, B97-3c, D3        
  Giovanni Bistoni       : ETS/NOCV, ADLD/ADEX, COVALED                  
  Martin Brehm           : Molecular dynamics                            
  Ronald Cardenas        : ETS/NOCV                                      
  Martina Colucci        : COVALED                                       
  Sebastian Ehlert       : rSCAN, r2SCAN, r2SCAN-3c, D4, dhf basis sets  
  Marvin Friede          : D4 for Fr, Ra, Ac-Lr                          
  Lars Goerigk           : TD-DFT with DH, B97 family of functionals     
  Stefan Grimme          : VdW corrections, initial TS optimization, DFT functionals, gCP, sTDA/sTD-DF 
  Waldemar Hujo          : DFT-NL                                        
  H. Jonsson             : NEB                                           
  Holger Kruse           : gCP                                           
  Marcel Mueller         : wB97X-3c, vDZP basis set                      
  Hagen Neugebauer       : wr2SCAN, Native XTB                           
  Gianluca Regni         : ADLD/ADEX                                     
  Tobias Risthaus        : pre 6.0 range-separated hybrid DFT and stability analysis
  Lukas Wittmann         : regularized MP2, r2SCAN double-hybrids, wr2SCAN        
                                                                         
We gratefully acknowledge several colleagues who have allowed us to      
interface, adapt or use parts of their codes:                            
  Ed Valeev, F. Pavosevic, A. Kumar             : LibInt (2-el integral package), F12 methods 
  Garnet Chan, S. Sharma, J. Yang, R. Olivares  : DMRG                   
  Ulf Ekstrom                                   : XCFun DFT Library      
  Mihaly Kallay                                 : mrcc  (arbitrary order and MRCC methods)
  Frank Weinhold                                : gennbo (NPA and NBO analysis)           
  Simon Mueller                                 : openCOSMO-RS                            
  Christopher J. Cramer and Donald G. Truhlar   : smd solvation model                     
  S Lehtola, MJT Oliveira, MAL Marques          : LibXC Library                           
  Liviu Ungur et al                             : ANISO software                          


 Your calculation uses the libint2 library for the computation of 2-el integrals
 For citations please refer to: http://libint.valeyev.net

 Your ORCA version has been built with support for libXC version: 7.0.0
 For citations please refer to: https://libxc.gitlab.io

 This ORCA versions uses:
   CBLAS   interface :  Fast vector & matrix operations
   LAPACKE interface :  Fast linear algebra routines
   SCALAPACK package :  Parallel linear algebra routines
   Shared memory     :  Shared parallel matrices
   BLAS/LAPACK       :  OpenBLAS 0.3.29  USE64BITINT DYNAMIC_ARCH NO_AFFINITY Cooperlake SINGLE_THREADED
        Core in use  :  Cooperlake
   Copyright (c) 2011-2014, The OpenBLAS Project


  ***********************************
  * Starting time: Thu Jul  9 14:01:32 2026
  * Host name:     c1-38
  * Process ID:    2036250
  * Working dir.:  /cluster/projects/nn14654k/ylvaos/TPhP_bsse/orca/geomopt_wb97x-d4_def2svp
  ***********************************

Your calculation utilizes the atom-pairwise dispersion correction
based on EEQ partial charges (D4)


Warning: RI is on but no J-basis has been assigned. Assigning Def2/J (nothing to worry about!)
================================================================================

cite the ECPs for Ru [Def2-ECP] as follows:
Ce-Yb(ecp-28): M. Dolg, H. Stoll, H.Preuss, J. Chem. Phys., 1989, 90, 1730-1734.
Y-Cd(ecp-28), Hf-Hg(ecp-46): D. Andrae,U. Haeussermann, M. Dolg, H. Stoll, H. Preuss, Theor. Chim. Acta, 1990, 77, 123-141.
In-Sb(ecp-28), Tl-Bi(ecp-46): B. Metz, H. Stoll, M. Dolg, J. Chem. Phys., 2000, 113, 2563-2569.
Te-Xe(ecp-28), Po-Rn(ecp-46): K. A. Peterson, D. Figgen, E. Goll, H. Stoll, M. Dolg, J. Chem. Phys., 2003, 119, 11113-11123.
Rb(ecp-28), Cs(ecp-46): T. Leininger, A. Nicklass, W. Kuechle, H. Stoll, M. Dolg, A. Bergner, Chem. Phys. Lett., 1996, 255, 274-280.
Sr(ecp-28), Ba(ecp-46): M. Kaupp, P. V. Schleyer, H. Stoll and H. Preuss, J. Chem. Phys., 1991, 94, 1360-1366.
La(ecp-46): M. Dolg, H. Stoll, A. Savin, H. Preuss, Theor. Chim. Acta, 1989, 75, 173-194.
Lu(ecp-28): X. Cao, M. Dolg, J. Chem. Phys., 2001, 115, 7348-7355.

ECP parameters for Ru [Def2-ECP] have been obtained from:
TURBOMOLE (7.0.2)

----- Orbital basis set information -----
Your calculation utilizes the basis: def2-SVP
   F. Weigend and R. Ahlrichs, Phys. Chem. Chem. Phys. 7, 3297 (2005).

----- AuxJ basis set information -----
Your calculation utilizes the auxiliary basis: def2/J
   H-Rn: F. Weigend, Phys. Chem. Chem. Phys. 8, 1057 (2006).
   Fr-Lr: K. Eichkorn, F. Weigend, O. Treutler, R. Ahlrichs; Theor. Chem. Acc. 97, 119 (1997).

================================================================================
                                        WARNINGS
                       Please study these warnings very carefully!
================================================================================


WARNING: Geometry Optimization
  ===> : Switching off AutoStart
         For restart on a previous wavefunction, please use MOREAD

================================================================================
                                       INPUT FILE
================================================================================
NAME = 1b_opt.inp
|  1> ! wB97X-D4 def2-SVP TightSCF defgrid3 Opt
|  2> 
|  3> %pal nprocs 32 end
|  4> 
|  5> %loc
|  6>   LocMet NEWBOYS
|  7>   Occ true
|  8> end
|  9> 
| 10> *xyz 0 1
| 11> Ru 0.011212 0.474077 0.299876
| 12> P 2.251692 1.026126 0.082748
| 13> P -2.232460 1.062489 0.093402
| 14> P -0.019697 -1.895845 0.022086
| 15> C 3.324518 0.209394 -1.208563
| 16> C 5.023165 0.792715 3.871623
| 17> C 4.018881 -0.165054 3.654564
| 18> C 3.193687 -0.082633 2.521046
| 19> C 2.514778 2.815383 -0.412278
| 20> C 2.013700 3.837884 0.429778
| 21> C 2.182077 5.189035 0.095820
| 22> C 2.840568 5.546076 -1.095534
| 23> C 3.334127 4.542855 -1.941925
| 24> C 3.181421 3.185711 -1.599839
| 25> C -2.509114 2.756472 -0.663780
| 26> C 2.719976 -0.239083 -2.405189
| 27> C -1.497599 3.405070 -1.403664
| 28> C -1.736671 4.658402 -1.996099
| 29> C -2.985166 5.282568 -1.852442
| 30> C -4.000333 4.647015 -1.115491
| 31> C -3.766308 3.394019 -0.529452
| 32> C -3.209403 1.307966 1.672754
| 33> C -2.559308 1.963568 2.746132
| 34> C -3.230275 2.202408 3.954766
| 35> C -4.563536 1.786815 4.116991
| 36> C -5.222310 1.142213 3.058424
| 37> C 3.492717 -0.829685 -3.419444
| 38> C -4.554913 0.908552 1.842571
| 39> C -3.437288 0.097066 -0.960194
| 40> C -3.814707 0.556463 -2.244433
| 41> C -4.658881 -0.214516 -3.061572
| 42> C -5.148796 -1.450020 -2.608977
| 43> C -4.780593 -1.917288 -1.336690
| 44> C -3.927488 -1.157210 -0.520622
| 45> C 1.447383 -2.830485 0.715371
| 46> C 1.400920 -3.405847 2.007015
| 47> C 2.538604 -4.020263 2.558228
| 48> C 4.878988 -0.986327 -3.248682
| 49> C 3.736478 -4.077726 1.827796
| 50> C 3.793348 -3.511115 0.543304
| 51> C 2.662807 -2.887337 -0.008699
| 52> C -0.147778 -2.651716 -1.678827
| 53> C 0.387796 -3.924490 -1.994681
| 54> C 0.235469 -4.464267 -3.282653
| 55> C -0.455271 -3.746430 -4.273385
| 56> C -0.992784 -2.484745 -3.970631
| 57> C -0.838746 -1.939036 -2.685026
| 58> C -1.363238 -2.846716 0.927502
| 59> C 5.489566 -0.547093 -2.061273
| 60> C -1.813864 -4.115289 0.497486
| 61> C -2.794868 -4.812873 1.221137
| 62> C -3.337699 -4.260046 2.393994
| 63> C -2.899666 -3.000035 2.833373
| 64> C -1.925547 -2.296424 2.102572
| 65> C 4.719748 0.049910 -1.048583
| 66> C 3.365628 0.959843 1.581927
| 67> C 4.384631 1.916468 1.807540
| 68> C 5.204679 1.832721 2.945028
| 69> H 1.478434 3.565194 1.344855
| 70> H 1.790200 5.964427 0.761921
| 71> H 2.964533 6.601143 -1.359548
| 72> H 3.847438 4.809768 -2.871561
| 73> H 3.581830 2.412554 -2.260335
| 74> H 2.723935 -2.436865 -1.002748
| 75> H 4.722722 -3.541461 -0.033680
| 76> H 4.620448 -4.560799 2.255756
| 77> H 2.480548 -4.466364 3.556688
| 78> H 0.466509 -3.386438 2.575247
| 79> H -1.408558 -4.548181 -0.421318
| 80> H -3.136061 -5.790767 0.865758
| 81> H -4.102429 -4.804509 2.956999
| 82> H -3.326214 -2.549504 3.735278
| 83> H -1.622129 -1.295345 2.424531
| 84> H 2.414940 -0.834349 2.359121
| 85> H 3.873509 -0.983948 4.366037
| 86> H 5.660525 0.730046 4.759435
| 87> H 5.983946 2.584509 3.107590
| 88> H 4.522816 2.735721 1.096213
| 89> H 5.199438 0.385451 -0.124662
| 90> H 1.636263 -0.137665 -2.520720
| 91> H 3.005290 -1.178948 -4.335008
| 92> H 5.479945 -1.453447 -4.035442
| 93> H 6.568676 -0.668734 -1.920745
| 94> H -4.558472 2.908356 0.047984
| 95> H -4.975867 5.128954 -0.993590
| 96> H -3.167490 6.261935 -2.306659
| 97> H -0.934747 5.147296 -2.558413
| 98> H -0.518333 2.927554 -1.496836
| 99> H -1.520505 2.288124 2.621537
|100> H -5.076754 0.403883 1.024572
|101> H -6.262604 0.820090 3.173599
|102> H -2.710648 2.714716 4.771232
|103> H -5.085345 1.968254 5.061957
|104> H -3.630548 -1.543367 0.457193
|105> H -3.456222 1.526928 -2.597742
|106> H -4.941209 0.160475 -4.050960
|107> H -5.810526 -2.046971 -3.244432
|108> H -5.146271 -2.883191 -0.975016
|109> H 0.944763 -4.480644 -1.234912
|110> H -1.251091 -0.952394 -2.453526
|111> H -1.538567 -1.919723 -4.732965
|112> H -0.572710 -4.168991 -5.276519
|113> H 0.661357 -5.446668 -3.511798
|114> H 0.101914 -0.079623 1.963299
|115> H 0.041254 0.814939 1.997969
|116> H 0.003903 2.086740 0.388775
|117> H 0.010735 0.723855 -1.311151
|118> **                         ****END OF INPUT****
================================================================================

                       *****************************
                       * Geometry Optimization Run *
                       *****************************

Geometry optimization settings:
Update method            Update   .... BFGS
Choice of coordinates    CoordSys .... (2022) Redundant Internals
Initial Hessian          InHess   .... Almloef's Model
Max. no of cycles        MaxIter  .... 321

Convergence Tolerances:
Energy Change            TolE     ....  5.0000e-06 Eh
Max. Gradient            TolMAXG  ....  3.0000e-04 Eh/bohr
RMS Gradient             TolRMSG  ....  1.0000e-04 Eh/bohr
Max. Displacement        TolMAXD  ....  4.0000e-03 bohr
RMS Displacement         TolRMSD  ....  2.0000e-03 bohr
Strict Convergence                .... False

------------------------------------------------------------------------------
                        ORCA OPTIMIZATION COORDINATE SETUP
------------------------------------------------------------------------------

The optimization will be done in redundant internal coordinates (2022)
Making redundant internal coordinates   ...  (2022 redundants) done
Evaluating the initial hessian          ...  (Almloef) done
Evaluating the coordinates              ...  done
Calculating the B-matrix                .... done
Calculating the G-matrix                .... done
The number of degrees of freedom        ....  613

    -----------------------------------------------------------------
                    Redundant Internal Coordinates


    -----------------------------------------------------------------
         Definition                    Initial Value    Approx d2E/dq
    -----------------------------------------------------------------
      1. B(P   1,Ru  0)                  2.3177         0.703556   
      2. B(P   2,Ru  0)                  2.3287         0.675606   
      3. B(P   3,Ru  0)                  2.3863         0.546700   
      4. B(C   4,P   1)                  1.8669         0.364162   
      5. B(C   6,C   5)                  1.4046         0.592074   
      6. B(C   7,C   6)                  1.4045         0.592401   
      7. B(C   8,P   1)                  1.8750         0.353518   
      8. B(C   9,C   8)                  1.4162         0.567447   
      9. B(C  10,C   9)                  1.4020         0.597943   
     10. B(C  11,C  10)                  1.4073         0.586385   
     11. B(C  12,C  11)                  1.4023         0.597204   
     12. B(C  13,C  12)                  1.4079         0.585033   
     13. B(C  13,C   8)                  1.4113         0.577704   
     14. B(C  14,P   2)                  1.8760         0.352227   
     15. B(C  15,C   4)                  1.4137         0.572723   
     16. B(C  16,C  14)                  1.4111         0.578145   
     17. B(C  17,C  16)                  1.4068         0.587486   
     18. B(C  18,C  17)                  1.4032         0.595230   
     19. B(C  19,C  18)                  1.4063         0.588552   
     20. B(C  20,C  19)                  1.4029         0.595816   
     21. B(C  20,C  14)                  1.4160         0.567888   
     22. B(C  21,P   2)                  1.8732         0.355839   
     23. B(C  22,C  21)                  1.4158         0.568233   
     24. B(C  23,C  22)                  1.4029         0.595949   
     25. B(C  24,C  23)                  1.4059         0.589297   
     26. B(C  25,C  24)                  1.4036         0.594374   
     27. B(C  26,C  15)                  1.4052         0.590814   
     28. B(C  27,C  21)                  1.4138         0.572537   
     29. B(C  27,C  25)                  1.4065         0.587994   
     30. B(C  28,P   2)                  1.8691         0.361228   
     31. B(C  29,C  28)                  1.4152         0.569575   
     32. B(C  30,C  29)                  1.4053         0.590735   
     33. B(C  31,C  30)                  1.4040         0.593387   
     34. B(C  32,C  31)                  1.4045         0.592381   
     35. B(C  33,C  32)                  1.4041         0.593275   
     36. B(C  33,C  28)                  1.4166         0.566651   
     37. B(C  34,P   3)                  1.8726         0.356716   
     38. B(C  35,C  34)                  1.4148         0.570475   
     39. B(C  36,C  35)                  1.4056         0.590031   
     40. B(C  37,C  26)                  1.4055         0.590203   
     41. B(C  38,C  36)                  1.4042         0.593072   
     42. B(C  39,C  38)                  1.4051         0.591162   
     43. B(C  40,C  39)                  1.4043         0.592922   
     44. B(C  40,C  34)                  1.4159         0.568095   
     45. B(C  41,P   3)                  1.8657         0.365828   
     46. B(C  42,C  41)                  1.4165         0.566776   
     47. B(C  43,C  42)                  1.4048         0.591755   
     48. B(C  44,C  43)                  1.4050         0.591348   
     49. B(C  45,C  44)                  1.4044         0.592534   
     50. B(C  46,C  45)                  1.4051         0.591081   
     51. B(C  46,C  41)                  1.4134         0.573267   
     52. B(C  47,P   3)                  1.8786         0.348936   
     53. B(C  48,C  37)                  1.4056         0.590027   
     54. B(C  49,C  47)                  1.4132         0.573662   
     55. B(C  50,C  49)                  1.4045         0.592353   
     56. B(C  51,C  50)                  1.4057         0.589869   
     57. B(C  52,C  51)                  1.4045         0.592437   
     58. B(C  53,C  52)                  1.4064         0.588200   
     59. B(C  53,C  47)                  1.4141         0.571767   
     60. B(C  54,C  48)                  1.4052         0.590875   
     61. B(C  54,C   4)                  1.4134         0.573334   
     62. B(C  55,C   7)                  1.4136         0.572910   
     63. B(C  55,P   1)                  1.8689         0.361559   
     64. B(C  56,C  55)                  1.4158         0.568365   
     65. B(C  57,C  56)                  1.4048         0.591804   
     66. B(C  57,C   5)                  1.4047         0.591985   
     67. B(H  58,C   9)                  1.0946         0.354015   
     68. B(H  59,C  10)                  1.0948         0.353863   
     69. B(H  60,C  11)                  1.0946         0.354014   
     70. B(H  61,C  12)                  1.0950         0.353588   
     71. B(H  62,C  13)                  1.0929         0.356330   
     72. B(H  63,C  40)                  1.0931         0.356066   
     73. B(H  64,C  39)                  1.0943         0.354412   
     74. B(H  65,C  38)                  1.0945         0.354207   
     75. B(H  66,C  36)                  1.0951         0.353384   
     76. B(H  67,C  35)                  1.0938         0.355114   
     77. B(H  68,C  49)                  1.0936         0.355424   
     78. B(H  69,C  50)                  1.0950         0.353571   
     79. B(H  70,C  51)                  1.0946         0.354020   
     80. B(H  71,C  52)                  1.0947         0.353944   
     81. B(H  72,C  53)                  1.0945         0.354226   
     82. B(H  73,C   7)                  1.0944         0.354307   
     83. B(H  74,H  65)                  4.2196         0.010000   
     84. B(H  74,C   6)                  1.0945         0.354206   
     85. B(H  75,C   5)                  1.0947         0.353938   
     86. B(H  76,C  57)                  1.0949         0.353639   
     87. B(H  77,C  56)                  1.0937         0.355193   
     88. B(H  78,C  54)                  1.0938         0.355155   
     89. B(H  79,C  15)                  1.0946         0.354115   
     90. B(H  80,C  26)                  1.0945         0.354257   
     91. B(H  81,H  64)                  4.5768         0.010000   
     92. B(H  81,C  37)                  1.0947         0.353952   
     93. B(H  82,C  48)                  1.0950         0.353547   
     94. B(H  83,C  20)                  1.0940         0.354854   
     95. B(H  84,C  19)                  1.0949         0.353684   
     96. B(H  85,C  18)                  1.0949         0.353730   
     97. B(H  86,H  60)                  4.3307         0.010000   
     98. B(H  86,C  17)                  1.0947         0.353978   
     99. B(H  87,C  16)                  1.0935         0.355546   
    100. B(H  88,C  22)                  1.0954         0.352985   
    101. B(H  89,C  27)                  1.0937         0.355267   
    102. B(H  90,C  25)                  1.0951         0.353418   
    103. B(H  91,C  23)                  1.0950         0.353508   
    104. B(H  92,C  24)                  1.0946         0.354056   
    105. B(H  93,C  33)                  1.0924         0.356894   
    106. B(H  94,C  29)                  1.0932         0.355859   
    107. B(H  95,C  30)                  1.0951         0.353433   
    108. B(H  96,C  31)                  1.0946         0.354131   
    109. B(H  97,H  70)                  4.4991         0.010000   
    110. B(H  97,C  32)                  1.0943         0.354454   
    111. B(H  98,C  42)                  1.0940         0.354887   
    112. B(H  99,C  46)                  1.0941         0.354700   
    113. B(H 100,H  96)                  4.5257         0.010000   
    114. B(H 100,C  45)                  1.0947         0.353987   
    115. B(H 101,H  80)                  4.7570         0.010000   
    116. B(H 101,C  44)                  1.0948         0.353782   
    117. B(H 102,C  43)                  1.0950         0.353561   
    118. B(H 103,Ru  0)                  1.7555         0.316069   
    119. B(H 104,Ru  0)                  1.7322         0.344284   
    120. B(H 105,Ru  0)                  1.6151         0.529346   
    121. B(H 106,Ru  0)                  1.6303         0.500695   
    122. A(P   2,Ru  0,P   3)          103.1874         0.602724   
    123. A(H 103,Ru  0,H 106)          169.9647         0.398736   
    124. A(P   3,Ru  0,H 103)           78.3305         0.458697   
    125. A(H 104,Ru  0,H 106)          159.8140         0.404789   
    126. A(P   1,Ru  0,P   3)          103.7783         0.607459   
    127. A(P   1,Ru  0,H 105)           76.8033         0.528876   
    128. A(H 103,Ru  0,H 105)          105.2485         0.402662   
    129. A(P   2,Ru  0,H 104)           93.0901         0.484422   
    130. A(P   2,Ru  0,H 103)          102.3270         0.476843   
    131. A(H 103,Ru  0,H 104)           29.8066         0.373562   
    132. A(P   1,Ru  0,H 106)           82.6004         0.523371   
    133. A(H 104,Ru  0,H 105)           75.5015         0.408791   
    134. A(H 105,Ru  0,H 106)           84.3421         0.437082   
    135. A(P   3,Ru  0,H 106)           92.1273         0.499266   
    136. A(P   1,Ru  0,H 104)           91.6160         0.488067   
    137. A(P   1,Ru  0,H 103)           96.5431         0.480418   
    138. A(P   2,Ru  0,H 106)           82.7261         0.519404   
    139. A(P   3,Ru  0,H 104)          108.0448         0.465921   
    140. A(P   1,Ru  0,P   2)          149.6432         0.632907   
    141. A(P   2,Ru  0,H 105)           75.4177         0.524859   
    142. A(C   8,P   1,C  55)           99.3227         0.405591   
    143. A(Ru  0,P   1,C  55)          119.5107         0.506936   
    144. A(Ru  0,P   1,C   8)          112.8093         0.504814   
    145. A(C   4,P   1,C  55)          101.3507         0.407724   
    146. A(C   4,P   1,C   8)           98.8717         0.406106   
    147. A(Ru  0,P   1,C   4)          121.0708         0.507615   
    148. A(Ru  0,P   2,C  14)          113.9556         0.500675   
    149. A(Ru  0,P   2,C  28)          122.7187         0.503033   
    150. A(C  14,P   2,C  28)           98.2692         0.405264   
    151. A(C  14,P   2,C  21)           98.3403         0.404189   
    152. A(Ru  0,P   2,C  21)          117.4411         0.501627   
    153. A(C  21,P   2,C  28)          101.9325         0.405995   
    154. A(Ru  0,P   3,C  41)          120.6217         0.484793   
    155. A(Ru  0,P   3,C  47)          117.1191         0.480581   
    156. A(C  34,P   3,C  47)           97.4259         0.403696   
    157. A(C  41,P   3,C  47)          100.6747         0.405498   
    158. A(Ru  0,P   3,C  34)          116.2597         0.482540   
    159. A(C  34,P   3,C  41)          100.9003         0.407081   
    160. A(P   1,C   4,C  15)          118.5884         0.414997   
    161. A(P   1,C   4,C  54)          122.5700         0.415076   
    162. A(C  15,C   4,C  54)          118.8259         0.421977   
    163. A(C   6,C   5,C  57)          119.6890         0.426930   
    164. A(C   6,C   5,H  75)          120.1699         0.349152   
    165. A(C  57,C   5,H  75)          120.1410         0.349143   
    166. A(C   5,C   6,C   7)          120.3165         0.426984   
    167. A(C   5,C   6,H  74)          120.3098         0.349197   
    168. A(C   7,C   6,H  74)          119.3735         0.349229   
    169. A(C   6,C   7,H  73)          119.8132         0.349246   
    170. A(C  55,C   7,H  73)          119.6561         0.347283   
    171. A(C   6,C   7,C  55)          120.5296         0.424476   
    172. A(C   9,C   8,C  13)          118.5540         0.421851   
    173. A(P   1,C   8,C  13)          122.6034         0.413451   
    174. A(P   1,C   8,C   9)          118.8392         0.412138   
    175. A(C   8,C   9,C  10)          120.7774         0.424456   
    176. A(C   8,C   9,H  58)          119.3539         0.346675   
    177. A(C  10,C   9,H  58)          119.8643         0.349746   
    178. A(C  11,C  10,H  59)          120.1914         0.348572   
    179. A(C   9,C  10,H  59)          119.6488         0.349721   
    180. A(C   9,C  10,C  11)          120.1572         0.426957   
    181. A(C  10,C  11,H  60)          120.1134         0.348597   
    182. A(C  10,C  11,C  12)          119.6139         0.426863   
    183. A(C  12,C  11,H  60)          120.2727         0.349673   
    184. A(C  11,C  12,C  13)          120.3176         0.426687   
    185. A(C  11,C  12,H  61)          120.2018         0.349602   
    186. A(C  13,C  12,H  61)          119.4794         0.348391   
    187. A(C   8,C  13,C  12)          120.5720         0.424159   
    188. A(C  12,C  13,H  62)          119.6940         0.348844   
    189. A(C   8,C  13,H  62)          119.7340         0.348104   
    190. A(P   2,C  14,C  20)          119.9471         0.411928   
    191. A(P   2,C  14,C  16)          121.3958         0.413239   
    192. A(C  16,C  14,C  20)          118.6343         0.421967   
    193. A(C  26,C  15,H  79)          120.4785         0.349056   
    194. A(C   4,C  15,H  79)          118.9041         0.347232   
    195. A(C   4,C  15,C  26)          120.6055         0.424248   
    196. A(C  14,C  16,C  17)          120.5635         0.424534   
    197. A(C  14,C  16,H  87)          119.0720         0.348020   
    198. A(C  17,C  16,H  87)          120.3568         0.348961   
    199. A(C  18,C  17,H  86)          120.3802         0.349472   
    200. A(C  16,C  17,C  18)          120.2913         0.426753   
    201. A(C  16,C  17,H  86)          119.3233         0.348701   
    202. A(C  17,C  18,C  19)          119.6644         0.426892   
    203. A(C  19,C  18,H  85)          120.0969         0.348766   
    204. A(C  17,C  18,H  85)          120.2378         0.349431   
    205. A(C  20,C  19,H  84)          119.6861         0.349481   
    206. A(C  18,C  19,C  20)          120.1412         0.426967   
    207. A(C  18,C  19,H  84)          120.1725         0.348759   
    208. A(C  19,C  20,H  83)          119.7481         0.349676   
    209. A(C  14,C  20,C  19)          120.7041         0.424244   
    210. A(C  14,C  20,H  83)          119.5436         0.346858   
    211. A(P   2,C  21,C  22)          117.4130         0.412719   
    212. A(C  22,C  21,C  27)          118.4731         0.421279   
    213. A(P   2,C  21,C  27)          124.0967         0.413272   
    214. A(C  21,C  22,C  23)          120.8229         0.424307   
    215. A(C  23,C  22,H  88)          120.0733         0.349377   
    216. A(C  21,C  22,H  88)          119.1035         0.346586   
    217. A(C  22,C  23,C  24)          120.1753         0.427081   
    218. A(C  22,C  23,H  91)          119.6743         0.349465   
    219. A(C  24,C  23,H  91)          120.1503         0.348804   
    220. A(C  23,C  24,C  25)          119.5923         0.426879   
    221. A(C  25,C  24,H  92)          120.2295         0.349400   
    222. A(C  23,C  24,H  92)          120.1778         0.348895   
    223. A(C  27,C  25,H  90)          119.5250         0.348659   
    224. A(C  24,C  25,H  90)          120.1079         0.349294   
    225. A(C  24,C  25,C  27)          120.3668         0.426709   
    226. A(C  15,C  26,C  37)          120.1013         0.426537   
    227. A(C  37,C  26,H  80)          120.3538         0.349019   
    228. A(C  15,C  26,H  80)          119.5391         0.349080   
    229. A(C  25,C  27,H  89)          119.7882         0.348966   
    230. A(C  21,C  27,H  89)          119.6453         0.347403   
    231. A(C  21,C  27,C  25)          120.5631         0.423860   
    232. A(P   2,C  28,C  33)          120.3623         0.413617   
    233. A(P   2,C  28,C  29)          121.0481         0.413996   
    234. A(C  29,C  28,C  33)          118.4719         0.420680   
    235. A(C  30,C  29,H  94)          119.7418         0.349337   
    236. A(C  28,C  29,C  30)          120.6498         0.423820   
    237. A(C  28,C  29,H  94)          119.6032         0.347197   
    238. A(C  29,C  30,H  95)          119.4961         0.348935   
    239. A(C  29,C  30,C  31)          120.3281         0.426938   
    240. A(C  31,C  30,H  95)          120.1725         0.349198   
    241. A(C  30,C  31,C  32)          119.5570         0.427151   
    242. A(C  32,C  31,H  96)          120.1959         0.349215   
    243. A(C  30,C  31,H  96)          120.2468         0.349315   
    244. A(C  31,C  32,C  33)          120.3766         0.427136   
    245. A(C  33,C  32,H  97)          119.2588         0.349357   
    246. A(C  31,C  32,H  97)          120.3610         0.349268   
    247. A(C  28,C  33,C  32)          120.6108         0.423755   
    248. A(C  32,C  33,H  93)          119.6055         0.349762   
    249. A(C  28,C  33,H  93)          119.7797         0.347066   
    250. A(C  35,C  34,C  40)          118.6035         0.420990   
    251. A(P   3,C  34,C  40)          120.2146         0.412881   
    252. A(P   3,C  34,C  35)          121.0154         0.413188   
    253. A(C  36,C  35,H  67)          119.7019         0.349144   
    254. A(C  34,C  35,H  67)          119.6787         0.347167   
    255. A(C  34,C  35,C  36)          120.6121         0.423849   
    256. A(C  38,C  36,H  66)          120.1868         0.349159   
    257. A(C  35,C  36,H  66)          119.5181         0.348856   
    258. A(C  35,C  36,C  38)          120.2899         0.426806   
    259. A(C  26,C  37,C  48)          119.7528         0.426435   
    260. A(C  48,C  37,H  81)          120.1338         0.348950   
    261. A(C  26,C  37,H  81)          120.1126         0.348968   
    262. A(C  39,C  38,H  65)          120.1826         0.349106   
    263. A(C  36,C  38,H  65)          120.2419         0.349296   
    264. A(C  36,C  38,C  39)          119.5755         0.426952   
    265. A(C  38,C  39,C  40)          120.3916         0.426933   
    266. A(C  40,C  39,H  64)          119.2608         0.349315   
    267. A(C  38,C  39,H  64)          120.3442         0.349140   
    268. A(C  34,C  40,C  39)          120.5245         0.423902   
    269. A(C  39,C  40,H  63)          119.7045         0.349590   
    270. A(C  34,C  40,H  63)          119.7699         0.347079   
    271. A(P   3,C  41,C  42)          122.7757         0.414565   
    272. A(C  42,C  41,C  46)          118.6297         0.421182   
    273. A(P   3,C  41,C  46)          118.5736         0.415405   
    274. A(C  41,C  42,C  43)          120.5762         0.423577   
    275. A(C  43,C  42,H  98)          119.7766         0.349278   
    276. A(C  41,C  42,H  98)          119.6318         0.346750   
    277. A(C  42,C  43,C  44)          120.2327         0.426807   
    278. A(C  42,C  43,H 102)          119.6317         0.349058   
    279. A(C  44,C  43,H 102)          120.1353         0.349017   
    280. A(C  43,C  44,C  45)          119.6793         0.426907   
    281. A(C  45,C  44,H 101)          120.2118         0.349172   
    282. A(C  43,C  44,H 101)          120.1088         0.349054   
    283. A(C  46,C  45,H 100)          119.4313         0.349061   
    284. A(C  44,C  45,H 100)          120.2912         0.349206   
    285. A(C  44,C  45,C  46)          120.2771         0.426873   
    286. A(C  45,C  46,H  99)          120.1659         0.349180   
    287. A(C  41,C  46,H  99)          119.2293         0.347384   
    288. A(C  41,C  46,C  45)          120.6044         0.424354   
    289. A(C  49,C  47,C  53)          118.3819         0.421894   
    290. A(P   3,C  47,C  53)          119.2030         0.411739   
    291. A(P   3,C  47,C  49)          122.3945         0.411981   
    292. A(C  37,C  48,C  54)          120.2383         0.426522   
    293. A(C  54,C  48,H  82)          119.6430         0.348968   
    294. A(C  37,C  48,H  82)          120.1186         0.348883   
    295. A(C  50,C  49,H  68)          119.6801         0.349427   
    296. A(C  47,C  49,H  68)          119.5252         0.347544   
    297. A(C  47,C  49,C  50)          120.7817         0.424570   
    298. A(C  51,C  50,H  69)          120.1127         0.348871   
    299. A(C  49,C  50,H  69)          119.6027         0.349119   
    300. A(C  49,C  50,C  51)          120.2846         0.426692   
    301. A(C  52,C  51,H  70)          120.2128         0.349202   
    302. A(C  50,C  51,H  70)          120.2199         0.348946   
    303. A(C  50,C  51,C  52)          119.5657         0.426703   
    304. A(C  53,C  52,H  71)          119.4779         0.348767   
    305. A(C  51,C  52,H  71)          120.3610         0.349189   
    306. A(C  51,C  52,C  53)          120.1510         0.426487   
    307. A(C  52,C  53,H  72)          119.7851         0.348814   
    308. A(C  47,C  53,H  72)          119.3490         0.347153   
    309. A(C  47,C  53,C  52)          120.8304         0.423785   
    310. A(C   4,C  54,C  48)          120.4750         0.424336   
    311. A(C  48,C  54,H  78)          119.9232         0.349235   
    312. A(C   4,C  54,H  78)          119.5990         0.347466   
    313. A(C   7,C  55,C  56)          118.6838         0.421346   
    314. A(P   1,C  55,C  56)          122.1994         0.413906   
    315. A(P   1,C  55,C   7)          119.1158         0.414493   
    316. A(C  55,C  56,C  57)          120.5918         0.423795   
    317. A(C  57,C  56,H  77)          119.8363         0.349334   
    318. A(C  55,C  56,H  77)          119.5654         0.346963   
    319. A(C   5,C  57,C  56)          120.1883         0.426895   
    320. A(C  56,C  57,H  76)          119.6534         0.349075   
    321. A(C   5,C  57,H  76)          120.1579         0.349093   
    322. D(C   4,P   1,Ru  0,H 103)    120.2674         0.010000   
    323. D(C   4,P   1,Ru  0,H 104)    149.7496         0.010000   
    324. D(C   4,P   1,Ru  0,P   2)   -111.3408         0.010000   
    325. D(C   8,P   1,Ru  0,H 103)   -123.0703         0.010000   
    326. D(C   4,P   1,Ru  0,H 105)   -135.5498         0.010000   
    327. D(C   4,P   1,Ru  0,H 106)    -49.6592         0.010000   
    328. D(C   8,P   1,Ru  0,P   3)    157.3867         0.010000   
    329. D(C   4,P   1,Ru  0,P   3)     40.7244         0.010000   
    330. D(C   8,P   1,Ru  0,P   2)      5.3215         0.010000   
    331. D(C  14,P   2,Ru  0,H 106)    -57.5928         0.010000   
    332. D(C  21,P   2,Ru  0,P   3)     97.7417         0.010000   
    333. D(C  21,P   2,Ru  0,P   1)   -110.1181         0.010000   
    334. D(C  14,P   2,Ru  0,H 105)     28.4225         0.010000   
    335. D(C  21,P   2,Ru  0,H 103)     17.0323         0.010000   
    336. D(C  14,P   2,Ru  0,H 104)    102.5732         0.010000   
    337. D(C  14,P   2,Ru  0,P   1)      4.0588         0.010000   
    338. D(C  14,P   2,Ru  0,H 103)    131.2093         0.010000   
    339. D(C  14,P   2,Ru  0,P   3)   -148.0813         0.010000   
    340. D(C  41,P   3,Ru  0,H 104)    176.6680         0.010000   
    341. D(C  41,P   3,Ru  0,H 106)     -4.0911         0.010000   
    342. D(C  41,P   3,Ru  0,H 103)    179.0425         0.010000   
    343. D(C  41,P   3,Ru  0,P   2)     78.9344         0.010000   
    344. D(C  34,P   3,Ru  0,H 104)    -60.8487         0.010000   
    345. D(C  34,P   3,Ru  0,H 103)    -58.4742         0.010000   
    346. D(C  34,P   3,Ru  0,H 106)    118.3922         0.010000   
    347. D(C  34,P   3,Ru  0,P   2)   -158.5823         0.010000   
    348. D(C  34,P   3,Ru  0,P   1)     35.4913         0.010000   
    349. D(C  41,P   3,Ru  0,P   1)    -86.9920         0.010000   
    350. D(C  15,C   4,P   1,C  55)    164.2201         0.010000   
    351. D(C  15,C   4,P   1,C   8)    -94.3271         0.010000   
    352. D(C  15,C   4,P   1,Ru  0)     29.1863         0.010000   
    353. D(C  54,C   4,P   1,Ru  0)   -152.2746         0.010000   
    354. D(C  54,C   4,P   1,C   8)     84.2120         0.010000   
    355. D(H  74,C   6,C   5,H  75)     -0.5550         0.024133   
    356. D(C   7,C   6,C   5,C  57)     -0.3226         0.024133   
    357. D(H  74,C   6,C   5,C  57)    179.5383         0.024133   
    358. D(C   7,C   6,C   5,H  75)    179.5841         0.024133   
    359. D(H  73,C   7,C   6,C   5)    179.8904         0.024161   
    360. D(C  55,C   7,C   6,H  74)   -179.5941         0.024161   
    361. D(C  55,C   7,C   6,C   5)      0.2681         0.024161   
    362. D(H  73,C   7,C   6,H  74)      0.0282         0.024161   
    363. D(C  13,C   8,P   1,C   4)      9.1528         0.010000   
    364. D(C  13,C   8,P   1,Ru  0)   -120.0675         0.010000   
    365. D(C   9,C   8,P   1,C  55)    -68.3719         0.010000   
    366. D(C   9,C   8,P   1,C   4)   -171.5211         0.010000   
    367. D(C   9,C   8,P   1,Ru  0)     59.2586         0.010000   
    368. D(H  58,C   9,C   8,P   1)     -0.4658         0.022080   
    369. D(C  10,C   9,C   8,C  13)     -0.3495         0.022080   
    370. D(H  58,C   9,C   8,C  13)    178.8879         0.022080   
    371. D(C  10,C   9,C   8,P   1)   -179.7032         0.022080   
    372. D(H  59,C  10,C   9,C   8)   -179.7954         0.024639   
    373. D(H  59,C  10,C   9,H  58)      0.9711         0.024639   
    374. D(C  11,C  10,C   9,H  58)   -178.4462         0.024639   
    375. D(C  11,C  10,C   9,C   8)      0.7873         0.024639   
    376. D(H  60,C  11,C  10,H  59)      0.0933         0.023648   
    377. D(C  12,C  11,C  10,H  59)   -179.8023         0.023648   
    378. D(C  12,C  11,C  10,C   9)     -0.3881         0.023648   
    379. D(H  60,C  11,C  10,C   9)    179.5074         0.023648   
    380. D(H  61,C  12,C  11,H  60)      0.0644         0.024575   
    381. D(H  61,C  12,C  11,C  10)    179.9598         0.024575   
    382. D(C  13,C  12,C  11,H  60)    179.6651         0.024575   
    383. D(C  13,C  12,C  11,C  10)     -0.4395         0.024575   
    384. D(C  12,C  13,C   8,P   1)    178.8470         0.022921   
    385. D(H  62,C  13,C  12,H  61)      0.4230         0.023534   
    386. D(H  62,C  13,C  12,C  11)   -179.1806         0.023534   
    387. D(C   8,C  13,C  12,H  61)   -179.5165         0.023534   
    388. D(C   8,C  13,C  12,C  11)      0.8800         0.023534   
    389. D(H  62,C  13,C   8,C   9)    179.5797         0.022921   
    390. D(H  62,C  13,C   8,P   1)     -1.0924         0.022921   
    391. D(C  12,C  13,C   8,C   9)     -0.4809         0.022921   
    392. D(C  16,C  14,P   2,C  21)    143.6368         0.010000   
    393. D(C  20,C  14,P   2,Ru  0)   -163.2103         0.010000   
    394. D(C  16,C  14,P   2,C  28)   -112.9206         0.010000   
    395. D(C  20,C  14,P   2,C  21)    -38.1246         0.010000   
    396. D(C  16,C  14,P   2,Ru  0)     18.5511         0.010000   
    397. D(H  79,C  15,C   4,C  54)    178.5780         0.022510   
    398. D(H  79,C  15,C   4,P   1)     -2.8273         0.022510   
    399. D(C  26,C  15,C   4,C  54)     -0.1738         0.022510   
    400. D(C  26,C  15,C   4,P   1)    178.4210         0.022510   
    401. D(H  87,C  16,C  14,C  20)    178.9095         0.022958   
    402. D(H  87,C  16,C  14,P   2)     -2.8293         0.022958   
    403. D(C  17,C  16,C  14,C  20)     -0.0866         0.022958   
    404. D(C  17,C  16,C  14,P   2)    178.1746         0.022958   
    405. D(H  86,C  17,C  16,H  87)      0.4943         0.023742   
    406. D(H  86,C  17,C  16,C  14)    179.4775         0.023742   
    407. D(C  18,C  17,C  16,H  87)   -178.6838         0.023742   
    408. D(C  18,C  17,C  16,C  14)      0.2994         0.023742   
    409. D(H  85,C  18,C  17,H  86)      0.3043         0.024404   
    410. D(H  85,C  18,C  17,C  16)    179.4737         0.024404   
    411. D(C  19,C  18,C  17,H  86)   -179.3588         0.024404   
    412. D(C  19,C  18,C  17,C  16)     -0.1894         0.024404   
    413. D(H  84,C  19,C  18,H  85)      0.0077         0.023832   
    414. D(H  84,C  19,C  18,C  17)    179.6713         0.023832   
    415. D(C  20,C  19,C  18,H  85)   -179.7948         0.023832   
    416. D(C  20,C  19,C  18,C  17)     -0.1312         0.023832   
    417. D(H  83,C  20,C  19,C  18)    179.6020         0.024454   
    418. D(C  14,C  20,C  19,H  84)   -179.4575         0.024454   
    419. D(C  14,C  20,C  19,C  18)      0.3460         0.024454   
    420. D(H  83,C  20,C  14,C  16)   -179.4927         0.022115   
    421. D(H  83,C  20,C  14,P   2)      2.2202         0.022115   
    422. D(C  19,C  20,C  14,C  16)     -0.2352         0.022115   
    423. D(H  83,C  20,C  19,H  84)     -0.2015         0.024454   
    424. D(C  19,C  20,C  14,P   2)   -178.5222         0.022115   
    425. D(C  27,C  21,P   2,C  14)     95.7382         0.010000   
    426. D(C  27,C  21,P   2,Ru  0)   -141.6789         0.010000   
    427. D(C  22,C  21,P   2,C  28)    176.9299         0.010000   
    428. D(C  22,C  21,P   2,C  14)    -82.7264         0.010000   
    429. D(C  22,C  21,P   2,Ru  0)     39.8565         0.010000   
    430. D(H  88,C  22,C  21,C  27)   -179.2817         0.022144   
    431. D(H  88,C  22,C  21,P   2)     -0.7281         0.022144   
    432. D(C  23,C  22,C  21,C  27)      0.5044         0.022144   
    433. D(C  23,C  22,C  21,P   2)    179.0580         0.022144   
    434. D(H  91,C  23,C  22,H  88)      0.0328         0.024466   
    435. D(H  91,C  23,C  22,C  21)   -179.7513         0.024466   
    436. D(C  24,C  23,C  22,H  88)    179.9983         0.024466   
    437. D(C  24,C  23,C  22,C  21)      0.2142         0.024466   
    438. D(H  92,C  24,C  23,H  91)     -0.3708         0.023895   
    439. D(H  92,C  24,C  23,C  22)    179.6639         0.023895   
    440. D(C  25,C  24,C  23,H  91)    179.4111         0.023895   
    441. D(C  25,C  24,C  23,C  22)     -0.5542         0.023895   
    442. D(H  90,C  25,C  24,H  92)      0.1322         0.024330   
    443. D(H  90,C  25,C  24,C  23)   -179.6496         0.024330   
    444. D(C  27,C  25,C  24,H  92)    179.9495         0.024330   
    445. D(C  27,C  25,C  24,C  23)      0.1677         0.024330   
    446. D(H  80,C  26,C  15,C   4)    179.4481         0.024025   
    447. D(C  37,C  26,C  15,H  79)   -178.4043         0.024025   
    448. D(C  37,C  26,C  15,C   4)      0.3278         0.024025   
    449. D(H  80,C  26,C  15,H  79)      0.7160         0.024025   
    450. D(H  89,C  27,C  25,H  90)     -0.2890         0.023785   
    451. D(H  89,C  27,C  25,C  24)    179.8926         0.023785   
    452. D(C  21,C  27,C  25,H  90)   -179.6171         0.023785   
    453. D(C  21,C  27,C  25,C  24)      0.5645         0.023785   
    454. D(H  89,C  27,C  21,C  22)    179.7801         0.022495   
    455. D(H  89,C  27,C  21,P   2)      1.3307         0.022495   
    456. D(C  25,C  27,C  21,C  22)     -0.8909         0.022495   
    457. D(C  25,C  27,C  21,P   2)   -179.3403         0.022495   
    458. D(C  33,C  28,P   2,C  14)   -159.7344         0.010000   
    459. D(C  33,C  28,P   2,Ru  0)     74.7419         0.010000   
    460. D(C  29,C  28,P   2,C  21)    124.6710         0.010000   
    461. D(C  29,C  28,P   2,C  14)     24.2706         0.010000   
    462. D(C  29,C  28,P   2,Ru  0)   -101.2532         0.010000   
    463. D(H  94,C  29,C  28,C  33)    179.3133         0.022253   
    464. D(H  94,C  29,C  28,P   2)     -4.6177         0.022253   
    465. D(C  30,C  29,C  28,C  33)      0.1401         0.022253   
    466. D(C  30,C  29,C  28,P   2)    176.2091         0.022253   
    467. D(H  95,C  30,C  29,H  94)      0.6586         0.024018   
    468. D(H  95,C  30,C  29,C  28)    179.8307         0.024018   
    469. D(C  31,C  30,C  29,H  94)   -178.6801         0.024018   
    470. D(C  31,C  30,C  29,C  28)      0.4919         0.024018   
    471. D(H  96,C  31,C  30,H  95)      0.3394         0.024245   
    472. D(H  96,C  31,C  30,C  29)    179.6736         0.024245   
    473. D(C  32,C  31,C  30,H  95)   -179.8682         0.024245   
    474. D(C  32,C  31,C  30,C  29)     -0.5340         0.024245   
    475. D(H  97,C  32,C  31,H  96)      0.4370         0.024159   
    476. D(H  97,C  32,C  31,C  30)   -179.3556         0.024159   
    477. D(C  33,C  32,C  31,H  96)    179.7345         0.024159   
    478. D(C  33,C  32,C  31,C  30)     -0.0580         0.024159   
    479. D(H  93,C  33,C  32,H  97)      0.7252         0.024236   
    480. D(H  93,C  33,C  32,C  31)   -178.5801         0.024236   
    481. D(C  28,C  33,C  32,H  97)   -179.9962         0.024236   
    482. D(C  28,C  33,C  32,C  31)      0.6986         0.024236   
    483. D(H  93,C  33,C  28,C  29)    178.5452         0.022015   
    484. D(H  93,C  33,C  28,P   2)      2.4483         0.022015   
    485. D(C  32,C  33,C  28,C  29)     -0.7322         0.022015   
    486. D(C  32,C  33,C  28,P   2)   -176.8290         0.022015   
    487. D(C  40,C  34,P   3,C  47)    154.7518         0.010000   
    488. D(C  40,C  34,P   3,C  41)     52.3168         0.010000   
    489. D(C  40,C  34,P   3,Ru  0)    -80.0154         0.010000   
    490. D(C  35,C  34,P   3,C  47)    -30.0029         0.010000   
    491. D(C  35,C  34,P   3,C  41)   -132.4379         0.010000   
    492. D(C  35,C  34,P   3,Ru  0)     95.2299         0.010000   
    493. D(H  67,C  35,C  34,C  40)   -178.9987         0.022326   
    494. D(H  67,C  35,C  34,P   3)      5.6811         0.022326   
    495. D(C  36,C  35,C  34,C  40)      0.0143         0.022326   
    496. D(C  36,C  35,C  34,P   3)   -175.3059         0.022326   
    497. D(H  66,C  36,C  35,H  67)     -0.5464         0.023958   
    498. D(H  66,C  36,C  35,C  34)   -179.5592         0.023958   
    499. D(C  38,C  36,C  35,H  67)    178.6220         0.023958   
    500. D(C  38,C  36,C  35,C  34)     -0.3908         0.023958   
    501. D(H  81,C  37,C  26,H  80)      0.4116         0.023973   
    502. D(H  81,C  37,C  26,C  15)    179.5246         0.023973   
    503. D(C  48,C  37,C  26,H  80)   -179.2690         0.023973   
    504. D(C  48,C  37,C  26,C  15)     -0.1560         0.023973   
    505. D(H  65,C  38,C  36,H  66)     -0.5283         0.024218   
    506. D(H  65,C  38,C  36,C  35)   -179.6912         0.024218   
    507. D(C  39,C  38,C  36,H  66)    179.4627         0.024218   
    508. D(C  39,C  38,C  36,C  35)      0.2998         0.024218   
    509. D(H  64,C  39,C  38,H  65)     -0.5148         0.024055   
    510. D(H  64,C  39,C  38,C  36)    179.4942         0.024055   
    511. D(C  40,C  39,C  38,H  65)   -179.8419         0.024055   
    512. D(C  40,C  39,C  38,C  36)      0.1671         0.024055   
    513. D(H  63,C  40,C  39,C  38)    179.0733         0.024205   
    514. D(C  34,C  40,C  39,H  64)   -179.8820         0.024205   
    515. D(C  34,C  40,C  39,C  38)     -0.5477         0.024205   
    516. D(H  63,C  40,C  34,C  35)   -179.1683         0.022132   
    517. D(H  63,C  40,C  34,P   3)     -3.8095         0.022132   
    518. D(C  39,C  40,C  34,C  35)      0.4524         0.022132   
    519. D(H  63,C  40,C  39,H  64)     -0.2610         0.024205   
    520. D(C  39,C  40,C  34,P   3)    175.8113         0.022132   
    521. D(C  46,C  41,P   3,C  47)    100.6914         0.010000   
    522. D(C  46,C  41,P   3,C  34)   -159.5071         0.010000   
    523. D(C  46,C  41,P   3,Ru  0)    -29.8962         0.010000   
    524. D(C  42,C  41,P   3,C  47)    -77.6159         0.010000   
    525. D(C  42,C  41,P   3,C  34)     22.1856         0.010000   
    526. D(C  42,C  41,P   3,Ru  0)    151.7965         0.010000   
    527. D(H  98,C  42,C  41,C  46)    178.6490         0.022025   
    528. D(H  98,C  42,C  41,P   3)     -3.0446         0.022025   
    529. D(C  43,C  42,C  41,C  46)      0.0819         0.022025   
    530. D(C  43,C  42,C  41,P   3)    178.3883         0.022025   
    531. D(H 102,C  43,C  42,H  98)      1.0384         0.024105   
    532. D(H 102,C  43,C  42,C  41)    179.6034         0.024105   
    533. D(C  44,C  43,C  42,H  98)   -178.7405         0.024105   
    534. D(C  44,C  43,C  42,C  41)     -0.1754         0.024105   
    535. D(H 101,C  44,C  43,H 102)      0.2166         0.024070   
    536. D(H 101,C  44,C  43,C  42)    179.9944         0.024070   
    537. D(C  45,C  44,C  43,H 102)   -179.7320         0.024070   
    538. D(C  45,C  44,C  43,C  42)      0.0458         0.024070   
    539. D(H 100,C  45,C  44,H 101)      0.4602         0.024172   
    540. D(H 100,C  45,C  44,C  43)   -179.5913         0.024172   
    541. D(C  46,C  45,C  44,H 101)   -179.7723         0.024172   
    542. D(C  46,C  45,C  44,C  43)      0.1762         0.024172   
    543. D(H  99,C  46,C  45,H 100)     -0.7354         0.024048   
    544. D(H  99,C  46,C  45,C  44)    179.4951         0.024048   
    545. D(C  41,C  46,C  45,H 100)    179.4985         0.024048   
    546. D(C  41,C  46,C  45,C  44)     -0.2709         0.024048   
    547. D(H  99,C  46,C  41,C  42)   -179.6278         0.022555   
    548. D(H  99,C  46,C  41,P   3)      1.9937         0.022555   
    549. D(C  45,C  46,C  41,C  42)      0.1404         0.022555   
    550. D(C  45,C  46,C  41,P   3)   -178.2381         0.022555   
    551. D(C  53,C  47,P   3,C  41)   -158.3952         0.010000   
    552. D(C  53,C  47,P   3,C  34)     98.9764         0.010000   
    553. D(C  53,C  47,P   3,Ru  0)    -25.6376         0.010000   
    554. D(C  49,C  47,P   3,C  41)     23.2828         0.010000   
    555. D(C  49,C  47,P   3,C  34)    -79.3456         0.010000   
    556. D(C  49,C  47,P   3,Ru  0)    156.0404         0.010000   
    557. D(H  82,C  48,C  37,H  81)      0.1465         0.023958   
    558. D(H  82,C  48,C  37,C  26)    179.8270         0.023958   
    559. D(C  54,C  48,C  37,H  81)   -179.8472         0.023958   
    560. D(C  54,C  48,C  37,C  26)     -0.1667         0.023958   
    561. D(H  68,C  49,C  47,C  53)    178.5928         0.022587   
    562. D(H  68,C  49,C  47,P   3)     -3.0721         0.022587   
    563. D(C  50,C  49,C  47,C  53)     -0.0946         0.022587   
    564. D(C  50,C  49,C  47,P   3)    178.2405         0.022587   
    565. D(H  69,C  50,C  49,H  68)      0.7958         0.024156   
    566. D(H  69,C  50,C  49,C  47)    179.4811         0.024156   
    567. D(C  51,C  50,C  49,H  68)   -179.1356         0.024156   
    568. D(C  51,C  50,C  49,C  47)     -0.4502         0.024156   
    569. D(H  70,C  51,C  50,H  69)      0.0507         0.023944   
    570. D(H  70,C  51,C  50,C  49)    179.9818         0.023944   
    571. D(C  52,C  51,C  50,H  69)   -179.4772         0.023944   
    572. D(C  52,C  51,C  50,C  49)      0.4538         0.023944   
    573. D(H  71,C  52,C  51,H  70)     -0.6014         0.024164   
    574. D(H  71,C  52,C  51,C  50)    178.9266         0.024164   
    575. D(C  53,C  52,C  51,H  70)   -179.4412         0.024164   
    576. D(C  53,C  52,C  51,C  50)      0.0868         0.024164   
    577. D(H  72,C  53,C  52,H  71)     -1.6690         0.023802   
    578. D(H  72,C  53,C  52,C  51)    177.1811         0.023802   
    579. D(C  47,C  53,C  52,H  71)   -179.4907         0.023802   
    580. D(C  47,C  53,C  52,C  51)     -0.6406         0.023802   
    581. D(H  72,C  53,C  47,C  49)   -177.1927         0.022432   
    582. D(H  72,C  53,C  47,P   3)      4.4178         0.022432   
    583. D(C  52,C  53,C  47,C  49)      0.6384         0.022432   
    584. D(C  52,C  53,C  47,P   3)   -177.7512         0.022432   
    585. D(H  78,C  54,C  48,H  82)     -0.2887         0.024030   
    586. D(H  78,C  54,C  48,C  37)    179.7051         0.024030   
    587. D(C   4,C  54,C  48,H  82)   -179.6728         0.024030   
    588. D(C   4,C  54,C  48,C  37)      0.3210         0.024030   
    589. D(H  78,C  54,C   4,C  15)   -179.5359         0.022560   
    590. D(H  78,C  54,C   4,P   1)      1.9283         0.022560   
    591. D(C  48,C  54,C   4,C  15)     -0.1499         0.022560   
    592. D(C  48,C  54,C   4,P   1)   -178.6857         0.022560   
    593. D(C  56,C  55,C   7,H  73)   -179.6181         0.022525   
    594. D(C  56,C  55,C   7,C   6)      0.0049         0.022525   
    595. D(P   1,C  55,C   7,H  73)      0.0376         0.022525   
    596. D(P   1,C  55,C   7,C   6)    179.6605         0.022525   
    597. D(C  56,C  55,P   1,C   4)     82.1957         0.010000   
    598. D(C  56,C  55,P   1,Ru  0)   -141.8744         0.010000   
    599. D(C   7,C  55,P   1,C   8)    161.4622         0.010000   
    600. D(C   7,C  55,P   1,C   4)    -97.4473         0.010000   
    601. D(C   7,C  55,P   1,Ru  0)     38.4826         0.010000   
    602. D(H  77,C  56,C  55,C   7)   -179.2967         0.022154   
    603. D(H  77,C  56,C  55,P   1)      1.0588         0.022154   
    604. D(C  57,C  56,C  55,C   7)     -0.2229         0.022154   
    605. D(C  57,C  56,C  55,P   1)   -179.8673         0.022154   
    606. D(H  76,C  57,C  56,H  77)     -0.5409         0.024109   
    607. D(H  76,C  57,C  56,C  55)   -179.6122         0.024109   
    608. D(C   5,C  57,C  56,H  77)    179.2408         0.024109   
    609. D(C   5,C  57,C  56,C  55)      0.1695         0.024109   
    610. D(H  76,C  57,C   5,H  75)     -0.0215         0.024125   
    611. D(H  76,C  57,C   5,C   6)    179.8852         0.024125   
    612. D(C  56,C  57,C   5,H  75)   -179.8021         0.024125   
    613. D(C  56,C  57,C   5,C   6)      0.1047         0.024125   
    -----------------------------------------------------------------

Number of atoms                         .... 107
Number of degrees of freedom            .... 613


         *************************************************************
         *                GEOMETRY OPTIMIZATION CYCLE   1            *
         *************************************************************
---------------------------------
CARTESIAN COORDINATES (ANGSTROEM)
---------------------------------
  Ru     0.011212    0.474077    0.299876
  P      2.251692    1.026126    0.082748
  P     -2.232460    1.062489    0.093402
  P     -0.019697   -1.895845    0.022086
  C      3.324518    0.209394   -1.208563
  C      5.023165    0.792715    3.871623
  C      4.018881   -0.165054    3.654564
  C      3.193687   -0.082633    2.521046
  C      2.514778    2.815383   -0.412278
  C      2.013700    3.837884    0.429778
  C      2.182077    5.189035    0.095820
  C      2.840568    5.546076   -1.095534
  C      3.334127    4.542855   -1.941925
  C      3.181421    3.185711   -1.599839
  C     -2.509114    2.756472   -0.663780
  C      2.719976   -0.239083   -2.405189
  C     -1.497599    3.405070   -1.403664
  C     -1.736671    4.658402   -1.996099
  C     -2.985166    5.282568   -1.852442
  C     -4.000333    4.647015   -1.115491
  C     -3.766308    3.394019   -0.529452
  C     -3.209403    1.307966    1.672754
  C     -2.559308    1.963568    2.746132
  C     -3.230275    2.202408    3.954766
  C     -4.563536    1.786815    4.116991
  C     -5.222310    1.142213    3.058424
  C      3.492717   -0.829685   -3.419444
  C     -4.554913    0.908552    1.842571
  C     -3.437288    0.097066   -0.960194
  C     -3.814707    0.556463   -2.244433
  C     -4.658881   -0.214516   -3.061572
  C     -5.148796   -1.450020   -2.608977
  C     -4.780593   -1.917288   -1.336690
  C     -3.927488   -1.157210   -0.520622
  C      1.447383   -2.830485    0.715371
  C      1.400920   -3.405847    2.007015
  C      2.538604   -4.020263    2.558228
  C      4.878988   -0.986327   -3.248682
  C      3.736478   -4.077726    1.827796
  C      3.793348   -3.511115    0.543304
  C      2.662807   -2.887337   -0.008699
  C     -0.147778   -2.651716   -1.678827
  C      0.387796   -3.924490   -1.994681
  C      0.235469   -4.464267   -3.282653
  C     -0.455271   -3.746430   -4.273385
  C     -0.992784   -2.484745   -3.970631
  C     -0.838746   -1.939036   -2.685026
  C     -1.363238   -2.846716    0.927502
  C      5.489566   -0.547093   -2.061273
  C     -1.813864   -4.115289    0.497486
  C     -2.794868   -4.812873    1.221137
  C     -3.337699   -4.260046    2.393994
  C     -2.899666   -3.000035    2.833373
  C     -1.925547   -2.296424    2.102572
  C      4.719748    0.049910   -1.048583
  C      3.365628    0.959843    1.581927
  C      4.384631    1.916468    1.807540
  C      5.204679    1.832721    2.945028
  H      1.478434    3.565194    1.344855
  H      1.790200    5.964427    0.761921
  H      2.964533    6.601143   -1.359548
  H      3.847438    4.809768   -2.871561
  H      3.581830    2.412554   -2.260335
  H      2.723935   -2.436865   -1.002748
  H      4.722722   -3.541461   -0.033680
  H      4.620448   -4.560799    2.255756
  H      2.480548   -4.466364    3.556688
  H      0.466509   -3.386438    2.575247
  H     -1.408558   -4.548181   -0.421318
  H     -3.136061   -5.790767    0.865758
  H     -4.102429   -4.804509    2.956999
  H     -3.326214   -2.549504    3.735278
  H     -1.622129   -1.295345    2.424531
  H      2.414940   -0.834349    2.359121
  H      3.873509   -0.983948    4.366037
  H      5.660525    0.730046    4.759435
  H      5.983946    2.584509    3.107590
  H      4.522816    2.735721    1.096213
  H      5.199438    0.385451   -0.124662
  H      1.636263   -0.137665   -2.520720
  H      3.005290   -1.178948   -4.335008
  H      5.479945   -1.453447   -4.035442
  H      6.568676   -0.668734   -1.920745
  H     -4.558472    2.908356    0.047984
  H     -4.975867    5.128954   -0.993590
  H     -3.167490    6.261935   -2.306659
  H     -0.934747    5.147296   -2.558413
  H     -0.518333    2.927554   -1.496836
  H     -1.520505    2.288124    2.621537
  H     -5.076754    0.403883    1.024572
  H     -6.262604    0.820090    3.173599
  H     -2.710648    2.714716    4.771232
  H     -5.085345    1.968254    5.061957
  H     -3.630548   -1.543367    0.457193
  H     -3.456222    1.526928   -2.597742
  H     -4.941209    0.160475   -4.050960
  H     -5.810526   -2.046971   -3.244432
  H     -5.146271   -2.883191   -0.975016
  H      0.944763   -4.480644   -1.234912
  H     -1.251091   -0.952394   -2.453526
  H     -1.538567   -1.919723   -4.732965
  H     -0.572710   -4.168991   -5.276519
  H      0.661357   -5.446668   -3.511798
  H      0.101914   -0.079623    1.963299
  H      0.041254    0.814939    1.997969
  H      0.003903    2.086740    0.388775
  H      0.010735    0.723855   -1.311151

----------------------------
CARTESIAN COORDINATES (A.U.)
----------------------------
  NO LB      ZA    FRAG     MASS         X           Y           Z
   0 Ru   16.0000*   0   101.070    0.021188    0.895876    0.566684
   1 P    15.0000    0    30.974    4.255081    1.939097    0.156371
   2 P    15.0000    0    30.974   -4.218738    2.007813    0.176504
   3 P    15.0000    0    30.974   -0.037222   -3.582628    0.041736
   4 C     6.0000    0    12.011    6.282429    0.395697   -2.283853
   5 C     6.0000    0    12.011    9.492406    1.498014    7.316307
   6 C     6.0000    0    12.011    7.594584   -0.311907    6.906125
   7 C     6.0000    0    12.011    6.035194   -0.156154    4.764087
   8 C     6.0000    0    12.011    4.752242    5.320303   -0.779093
   9 C     6.0000    0    12.011    3.805342    7.252550    0.812163
  10 C     6.0000    0    12.011    4.123528    9.805855    0.181074
  11 C     6.0000    0    12.011    5.367896   10.480565   -2.070259
  12 C     6.0000    0    12.011    6.300587    8.584752   -3.669706
  13 C     6.0000    0    12.011    6.012014    6.020121   -3.023258
  14 C     6.0000    0    12.011   -4.741538    5.208977   -1.254362
  15 C     6.0000    0    12.011    5.140010   -0.451801   -4.545149
  16 C     6.0000    0    12.011   -2.830052    6.434650   -2.652541
  17 C     6.0000    0    12.011   -3.281833    8.803104   -3.772080
  18 C     6.0000    0    12.011   -5.641146    9.982607   -3.500608
  19 C     6.0000    0    12.011   -7.559534    8.781586   -2.107972
  20 C     6.0000    0    12.011   -7.117291    6.413766   -1.000519
  21 C     6.0000    0    12.011   -6.064893    2.471698    3.161047
  22 C     6.0000    0    12.011   -4.836391    3.710606    5.189437
  23 C     6.0000    0    12.011   -6.104335    4.161948    7.473425
  24 C     6.0000    0    12.011   -8.623833    3.376591    7.779985
  25 C     6.0000    0    12.011   -9.868736    2.158470    5.779584
  26 C     6.0000    0    12.011    6.600279   -1.567877   -6.461813
  27 C     6.0000    0    12.011   -8.607538    1.716914    3.481955
  28 C     6.0000    0    12.011   -6.495533    0.183428   -1.814504
  29 C     6.0000    0    12.011   -7.208752    1.051563   -4.241364
  30 C     6.0000    0    12.011   -8.804009   -0.405376   -5.785533
  31 C     6.0000    0    12.011   -9.729814   -2.740141   -4.930252
  32 C     6.0000    0    12.011   -9.034012   -3.623149   -2.525978
  33 C     6.0000    0    12.011   -7.421877   -2.186810   -0.983833
  34 C     6.0000    0    12.011    2.735157   -5.348841    1.351855
  35 C     6.0000    0    12.011    2.647355   -6.436118    3.792709
  36 C     6.0000    0    12.011    4.797266   -7.597196    4.834350
  37 C     6.0000    0    12.011    9.219951   -1.863888   -6.139119
  38 C     6.0000    0    12.011    7.060920   -7.705785    3.454034
  39 C     6.0000    0    12.011    7.168389   -6.635046    1.026696
  40 C     6.0000    0    12.011    5.031976   -5.456276   -0.016439
  41 C     6.0000    0    12.011   -0.279260   -5.011017   -3.172523
  42 C     6.0000    0    12.011    0.732828   -7.416211   -3.769401
  43 C     6.0000    0    12.011    0.444972   -8.436242   -6.203315
  44 C     6.0000    0    12.011   -0.860338   -7.079727   -8.075527
  45 C     6.0000    0    12.011   -1.876090   -4.695488   -7.503405
  46 C     6.0000    0    12.011   -1.585000   -3.664247   -5.073964
  47 C     6.0000    0    12.011   -2.576146   -5.379514    1.752725
  48 C     6.0000    0    12.011   10.373776   -1.033856   -3.895241
  49 C     6.0000    0    12.011   -3.427706   -7.776769    0.940112
  50 C     6.0000    0    12.011   -5.281535   -9.095012    2.307615
  51 C     6.0000    0    12.011   -6.307337   -8.050320    4.523993
  52 C     6.0000    0    12.011   -5.479575   -5.669245    5.354299
  53 C     6.0000    0    12.011   -3.638756   -4.339612    3.973285
  54 C     6.0000    0    12.011    8.919031    0.094316   -1.981535
  55 C     6.0000    0    12.011    6.360115    1.813840    2.989409
  56 C     6.0000    0    12.011    8.285752    3.621600    3.415756
  57 C     6.0000    0    12.011    9.835418    3.463341    5.565296
  58 H     1.0000    0     1.008    2.793835    6.737240    2.541408
  59 H     1.0000    0     1.008    3.382988   11.271134    1.439822
  60 H     1.0000    0     1.008    5.602155   12.474352   -2.569173
  61 H     1.0000    0     1.008    7.270604    9.089144   -5.426464
  62 H     1.0000    0     1.008    6.768678    4.559066   -4.271414
  63 H     1.0000    0     1.008    5.147491   -4.605007   -1.894919
  64 H     1.0000    0     1.008    8.924651   -6.692391   -0.063646
  65 H     1.0000    0     1.008    8.731381   -8.618661    4.262761
  66 H     1.0000    0     1.008    4.687556   -8.440205    6.721166
  67 H     1.0000    0     1.008    0.881574   -6.399440    4.866512
  68 H     1.0000    0     1.008   -2.661789   -8.594816   -0.796176
  69 H     1.0000    0     1.008   -5.926296  -10.942964    1.636046
  70 H     1.0000    0     1.008   -7.752467   -9.079206    5.587918
  71 H     1.0000    0     1.008   -6.285634   -4.817864    7.058652
  72 H     1.0000    0     1.008   -3.065380   -2.447847    4.581700
  73 H     1.0000    0     1.008    4.563575   -1.576691    4.458093
  74 H     1.0000    0     1.008    7.319871   -1.859392    8.250614
  75 H     1.0000    0     1.008   10.696842    1.379587    8.994029
  76 H     1.0000    0     1.008   11.308019    4.884014    5.872494
  77 H     1.0000    0     1.008    8.546884    5.169763    2.071542
  78 H     1.0000    0     1.008    9.825514    0.728397   -0.235577
  79 H     1.0000    0     1.008    3.092089   -0.260149   -4.763470
  80 H     1.0000    0     1.008    5.679175   -2.227889   -8.191978
  81 H     1.0000    0     1.008   10.355595   -2.746617   -7.625880
  82 H     1.0000    0     1.008   12.412999   -1.263724   -3.629682
  83 H     1.0000    0     1.008   -8.614264    5.495996    0.090677
  84 H     1.0000    0     1.008   -9.403026    9.692318   -1.877613
  85 H     1.0000    0     1.008   -5.985689   11.833342   -4.358954
  86 H     1.0000    0     1.008   -1.766416    9.726980   -4.834700
  87 H     1.0000    0     1.008   -0.979507    5.532275   -2.828610
  88 H     1.0000    0     1.008   -2.873338    4.323928    4.953987
  89 H     1.0000    0     1.008   -9.593675    0.763228    1.936160
  90 H     1.0000    0     1.008  -11.834606    1.549746    5.997233
  91 H     1.0000    0     1.008   -5.122382    5.130070    9.016322
  92 H     1.0000    0     1.008   -9.609909    3.719461    9.565712
  93 H     1.0000    0     1.008   -6.860741   -2.916541    0.863970
  94 H     1.0000    0     1.008   -6.531313    2.885476   -4.909021
  95 H     1.0000    0     1.008   -9.337532    0.303254   -7.655205
  96 H     1.0000    0     1.008  -10.980303   -3.868215   -6.131088
  97 H     1.0000    0     1.008   -9.725043   -5.448441   -1.842513
  98 H     1.0000    0     1.008    1.785343   -8.467190   -2.333645
  99 H     1.0000    0     1.008   -2.364219   -1.799764   -4.636492
 100 H     1.0000    0     1.008   -2.907470   -3.627751   -8.944008
 101 H     1.0000    0     1.008   -1.082265   -7.878251   -9.971176
 102 H     1.0000    0     1.008    1.249784  -10.292711   -6.636336
 103 H     1.0000    0     1.008    0.192590   -0.150466    3.710097
 104 H     1.0000    0     1.008    0.077959    1.540012    3.775614
 105 H     1.0000    0     1.008    0.007376    3.943367    0.734678
 106 H     1.0000    0     1.008    0.020286    1.367888   -2.477716
* core charge reduced due to ECP

--------------------------------
INTERNAL COORDINATES (ANGSTROEM)
--------------------------------
 Ru     0   0   0     0.000000000000     0.00000000     0.00000000
 P      1   0   0     2.317682742997     0.00000000     0.00000000
 P      1   2   0     2.328717294565   149.64315660     0.00000000
 P      1   2   3     2.386347195289   103.77832771   152.06515892
 C      2   1   3     1.866946942155   121.07083856   248.65921242
 C      2   1   3     4.700118833633   118.85989875   122.16868880
 C      6   2   1     1.404643164472    59.18282419    38.10828769
 C      7   6   2     1.404493294822   120.31651863   359.78486888
 C      2   1   3     1.875021492176   112.80932606     5.32153582
 C      9   2   1     1.416208234767   118.83920864    59.25861546
 C     10   9   2     1.401958553130   120.77744586   180.29678579
 C     11  10   9     1.407271482720   120.15723246     0.78726209
 C     12  11  10     1.402294757247   119.61385517   359.61185864
 C     13  12  11     1.407899780016   120.31759251   359.56047289
 C      3   1   2     1.876017169732   113.95555002     4.05882473
 C      5   2   1     1.413688944984   118.58839268    29.18628805
 C     15   3   1     1.411123770009   121.39584952    18.55108981
 C     17  15   3     1.406760730413   120.56352038   178.17456653
 C     18  17  15     1.403196456035   120.29131988     0.29941495
 C     19  18  17     1.406267552815   119.66440522   359.81057769
 C     20  19  18     1.402928503582   120.14116300   359.86878140
 C      3   1   2     1.873240326995   117.44114934   249.88187919
 C     22   3   1     1.415831141879   117.41296926    39.85651582
 C     23  22   3     1.402867565612   120.82288023   179.05797728
 C     24  23  22     1.405922966024   120.17534459     0.21423347
 C     25  24  23     1.403587907817   119.59232753   359.44578750
 C     16   5   2     1.405223320512   120.60554167   178.42099001
 C     26  25  24     1.406525768032   120.36680733     0.16769202
 C      3   1   2     1.869148632327   122.71874747   122.25558804
 C     29   3   1     1.415189215014   121.04811107   258.74681810
 C     30  29   3     1.405259586709   120.64984545   176.20912071
 C     31  30  29     1.404040268392   120.32806833     0.49192523
 C     32  31  30     1.404502418439   119.55695524   359.46601332
 C     33  32  31     1.404091766137   120.37657054   359.94201510
 C      4   1   2     1.872570358418   116.25968899    35.49133163
 C     35   4   1     1.414759507531   121.01541828    95.22989711
 C     36  35   4     1.405584460743   120.61208318   184.69407975
 C     27  16   5     1.405504771336   120.10125695     0.32775664
 C     37  36  35     1.404184825039   120.28985653   359.60923715
 C     39  37  36     1.405062959545   119.57550295     0.29983658
 C     40  39  37     1.404253986277   120.39163073     0.16711734
 C      4   1   2     1.865703820217   120.62165020   273.00802702
 C     42   4   1     1.416529884566   122.77565995   151.79653514
 C     43  42   4     1.404789876616   120.57617499   178.38825189
 C     44  43  42     1.404977438251   120.23265411   359.82459161
 C     45  44  43     1.404432002238   119.67931405     0.04576554
 C     46  45  44     1.405100079763   120.27710394     0.17620913
 C      4   1   2     1.878572918568   117.11905980   149.98470809
 C     38  27  16     1.405586046502   119.75280563   359.84403833
 C     48   4   1     1.413242728076   122.39450047   156.04037386
 C     50  48   4     1.404515238391   120.78172116   178.24053245
 C     51  50  48     1.405658823804   120.28460265   359.54975806
 C     52  51  50     1.404476605306   119.56567771     0.45381919
 C     53  52  51     1.406430363396   120.15103584     0.08676537
 C     49  38  27     1.405195136354   120.23831089   359.83327577
 C      8   7   6     1.413599806953   120.52958555     0.26809289
 C     56   8   7     1.415768247420   118.68381200     0.00000000
 C      6   2   1     1.404684343992    60.50628456   218.00101551
 H     10   9   2     1.094639412220   119.35389527   359.53416188
 H     11  10   9     1.094756081963   119.64876602   180.20462583
 H     12  11  10     1.094640163666   120.11337042   179.50743467
 H     13  12  11     1.094967499420   120.20179004   179.95976600
 H     14  13  12     1.092865078565   119.69396995   180.81940303
 H     41  40  39     1.093066818437   119.70446119   179.07327449
 H     40  39  37     1.094334248686   120.34422516   179.49419032
 H     39  37  36     1.094491775131   120.24194486   180.30884529
 H     37  36  35     1.095125094652   119.51810381   180.44083346
 H     36  35   4     1.093795333701   119.67871657     5.68110087
 H     50  48   4     1.093558058686   119.52520807   356.92790936
 H     51  50  48     1.094981082999   119.60268393   179.48111793
 H     52  51  50     1.094635355401   120.21986367   179.98175535
[...]
 H     33  32  31     1.094021363070   120.51980394   179.72990246
 H     43  42   4     1.092413116192   120.14955781   357.59892694
 H     47  46  45     1.090971967297   120.35081808   178.51734724
 H     46  45  44     1.093514984239   120.42645941   180.39411247
 H     45  44  43     1.094245828227   120.04503259   180.50581857
 H     44  43  42     1.093970280438   119.72184033   179.58928610
 H      1   2   5     1.729552173802    97.19426382   109.11069697
 H    104   1   2     0.897587613487    73.08717674    83.72502144
 H      1   2   5     1.603994416424    80.09291092   210.04949980
 H      1   2   5     1.625770274308    81.57213244   297.91346330

---------------------------
INTERNAL COORDINATES (A.U.)
---------------------------
 Ru     0   0   0     0.000000000000     0.00000000     0.00000000
 P      1   0   0     4.319877568916     0.00000000     0.00000000
 P      1   2   0     4.351909862331   152.37612510     0.00000000
 P      1   2   3     4.460862457355   100.91777098   137.33078525
 C      2   1   3     3.474472289928   118.46143698   252.77762739
 C      2   1   3     8.775622422804   118.28295305   131.81669227
 C      6   2   1     2.639048481271    58.64834237    43.49401262
 C      7   6   2     2.633954142669   120.05246581   358.88982527
 C      2   1   3     3.495228725343   113.82622984    10.46177015
 C      9   2   1     2.648442224237   119.05183458    50.82528712
 C     10   9   2     2.632663345243   120.87782926   179.16489634
 C     11  10   9     2.640280671439   120.14169440     0.46113288
 C     12  11  10     2.633551979164   119.46758703   359.37867294
 C     13  12  11     2.641531279665   120.28917865     0.09026445
 C      3   1   2     3.506996355460   113.29818400   343.02783527
 C      5   2   1     2.644591300947   117.29847186    40.16927585
 C     15   3   1     2.644551774098   120.24505381    20.32599422
 C     17  15   3     2.638358073586   120.78158751   177.58342305
 C     18  17  15     2.635252192857   120.19049884     0.16238478
 C     19  18  17     2.638565429282   119.47561454   359.67600654
 C     20  19  18     2.635515824828   120.21839220     0.12487806
 C      3   1   2     3.491255838557   120.68892711   224.25616186
 C     22   3   1     2.645123200688   117.13422404    31.81804339
 C     23  22   3     2.635408066126   120.97926296   179.95929725
 C     24  23  22     2.638283720772   120.00631215     0.18961824
 C     25  24  23     2.636848733945   119.53470891   359.33414594
 C     16   5   2     2.633695604423   120.69581684   183.03956991
 C     26  25  24     2.638044463796   120.25937143     0.33925924
 C      3   1   2     3.488940380698   117.24226173    97.72652639
 C     29   3   1     2.650486836719   119.40187468   271.58683368
 C     30  29   3     2.635329804203   120.73521824   173.82854494
 C     31  30  29     2.638389164243   120.20079426   359.80249109
 C     32  31  30     2.634613001792   119.45394790     0.69998561
 C     33  32  31     2.636660341910   120.32388851   359.63607665
 C      4   1   2     3.495350597531   114.49919508    45.10591982
 C     35   4   1     2.649506274845   119.80483377    83.10790122
 C     36  35   4     2.636423994222   120.82131946   186.34125863
 C     27  16   5     2.640749371941   119.83287440   359.40708028
 C     37  36  35     2.638778295057   120.16090017   359.97065018
 C     39  37  36     2.634998857168   119.38988272   359.66178469
 C     40  39  37     2.636261619523   120.39700804     0.25739038
 C      4   1   2     3.474578666554   121.93470997   280.76169390
 C     42   4   1     2.649514839143   123.36819482   155.47346326
 C     43  42   4     2.635454593529   120.45608929   177.64414414
 C     44  43  42     2.640462367784   120.16390849   359.31117002
 C     45  44  43     2.635655146637   119.66965915     0.24379077
 C     46  45  44     2.636584394913   120.03715279     0.43047256
 C      4   1   2     3.500445789166   114.25999369   159.15753307
 C     38  27  16     2.637886342233   119.76742565   359.01667082
 C     48   4   1     2.644795496364   123.61399226   149.14624561
 C     50  48   4     2.636208102806   120.54160076   183.91492028
 C     51  50  48     2.638966477052   120.43672023   359.74185756
 C     52  51  50     2.636743711531   119.51391680   359.10040119
 C     53  52  51     2.636526949920   119.78049913     0.97295198
 C     49  38  27     2.638670600028   120.26065457     1.23601252
 C      8   7   6     2.646798231610   120.58588402     0.64487336
 C     56   8   7     2.644408330379   119.10522963   359.55777257
 C      6   2   1     2.636604536236    61.05402187   224.28356759
 H     10   9   2     2.064614957827   119.35191754   358.46241287
 H     11  10   9     2.067335545215   119.60344578   179.98116514
 H     12  11  10     2.067256106427   120.24243166   179.38190164
 H     13  12  11     2.067271484931   120.18669970   180.16327819
 H     14  13  12     2.062418010803   119.15980917   180.48573895
 H     41  40  39     2.058659267245   119.11588369   180.78381792
 H     40  39  37     2.067100624677   120.39889568   180.19974716
 H     39  37  36     2.067198731568   120.35480156   180.22652659
 H     37  36  35     2.067326283973   119.60458546   180.20756582
 H     36  35   4     2.064607964869   120.05336949     6.42317342
 H     50  48   4     2.060921272561   120.36709435     1.34762769
 H     51  50  48     2.067511108817   119.50079578   178.83271807
 H     52  51  50     2.066398342419   120.15607068   178.75711929
 H     53  52  51     2.067047560930   120.73939386   179.09884460
 H     54  53  52     2.059462263424   119.24337425   177.39387266
 H      8   7   6     2.062301399261   119.74396807   180.15980132
 H      7   6   2     2.066833195144   120.34131087   179.25663591
 H      6   2   1     2.067380660612   178.71594330    68.45999531
 H     58   6   2     2.067326038479   120.09615441   180.59281150
 H     57  56   8     2.064645384425   120.06630328   179.88467427
 H     55  49  38     2.063837674834   119.59749025   178.51185110
 H     16   5   2     2.061236892164   118.96691341     1.56215435
 H     27  16   5     2.066635014010   119.70249916   178.19987056
 H     38  27  16     2.066742880899   120.12923142   178.97706269
 H     49  38  27     2.067530470198   120.10463376   180.48036542
 H     21  20  19     2.063174249974   118.95919204   179.83807078
 H     20  19  18     2.067286552341   120.16253906   179.93498882
 H     19  18  17     2.067607081377   120.34821016   179.58892021
 H     18  17  15     2.067777275257   119.29575582   179.75477388
 H     17  15   3     2.060570184828   119.09363444   357.50906917
 H     23  22   3     2.066363102992   119.11401282   359.50794160
 H     28  26  25     2.063416241393   119.17906452   180.14715037
 H     26  25  24     2.067234888194   120.14761240   180.41859855
 H     24  23  22     2.067156118374   119.79575189   180.00810154
 H     25  24  23     2.067235950373   120.22243956   179.65587863
 H     34  33  32     2.058496782802   119.01016008   178.87260344
 H     30  29   3     2.064176904705   119.81267097   354.27270244
 H     31  30  29     2.067548209161   119.60916682   179.90927615
 H     32  31  30     2.067100102464   120.32285202   180.44377259
 H     33  32  31     2.067400760862   120.51980394   179.72990246
 H     43  42   4     2.064361614706   120.14955781   357.59892694
 H     47  46  45     2.061638237976   120.35081808   178.51734724
 H     46  45  44     2.066443843550   120.42645941   180.39411247
 H     45  44  43     2.067824938534   120.04503259   180.50581857
 H     44  43  42     2.067304228678   119.72184033   179.58928610
 H      1   2   5     3.268379942814    97.19426382   109.11069697
 H    104   1   2     1.696194770691    73.08717674    83.72502144
 H      1   2   5     3.031110167380    80.09291092   210.04949980
 H      1   2   5     3.072260575113    81.57213244   297.91346330



           ************************************************************
           *        Program running with 32 parallel MPI-processes    *
           *              working on a common directory               *
           ************************************************************
------------------------------------------------------------------------------
                   ___                                                        
                  /   \      - P O W E R E D   B Y -                         
                 /     \                                                     
                 |  |  |   _    _      __       _____    __    __             
                 |  |  |  | |  | |    /  \     |  _  \  |  |  /  |          
                  \  \/   | |  | |   /    \    | | | |  |  | /  /          
                 / \  \   | |__| |  /  /\  \   | |_| |  |  |/  /          
                |  |  |   |  __  | /  /__\  \  |    /   |      \           
                |  |  |   | |  | | |   __   |  |    \   |  |\   \          
                \     /   | |  | | |  |  |  |  | |\  \  |  | \   \       
                 \___/    |_|  |_| |__|  |__|  |_| \__\ |__|  \__/        
                                                                              
                      - O R C A' S   B I G   F R I E N D -                    
                                      &                                       
                       - I N T E G R A L  F E E D E R -                       
                                                                              
 v1 FN, 2020, v2 2021, v3 2022-2024                                           
------------------------------------------------------------------------------


----------------------
SHARK INTEGRAL PACKAGE
----------------------

Number of atoms                             ...    107
Number of basis functions                   ...   1086
Number of shells                            ...    506
Maximum angular momentum                    ...      3
Integral batch strategy                     ... SHARK/LIBINT Hybrid
RI-J (if used) integral strategy            ... SPLIT-RIJ (Revised 2003 algorithm where possible)
Printlevel                                  ...      1
Contraction scheme used                     ... SEGMENTED contraction
Prescreening option                         ... SCHWARTZ
   Thresh                                   ... 2.500e-11
   Tcut                                     ... 2.500e-12
   Tpresel                                  ... 2.500e-12 
Coulomb Range Separation                    ... NOT USED
Exchange Range Separation                   ... Long Range
   Mu parameter                             ... 3.000e-01
   Scaling (regular/separated)              ... 1.670e-01 8.330e-01
Robust (split-)RI terms used:
  metric    (central integrals)             ... YES
  density   (r.h.s.  integrals)             ... YES
  potential (l.h.s.  integrals)             ... YES
Multipole approximations                    ... NOT USED
Finite Nucleus Model                        ... NOT USED
CABS basis                                  ... NOT available
Auxiliary Coulomb fitting basis             ... AVAILABLE
   # of basis functions in Aux-J            ...   3427
   # of shells in Aux-J                     ...   1129
   Maximum angular momentum in Aux-J        ...      4
Auxiliary J/K fitting basis                 ... NOT available
Auxiliary Correlation fitting basis         ... NOT available
Auxiliary 'external' fitting basis          ... NOT available

Checking pre-screening integrals            ... done (  0.0 sec) Dimension = 506
   => SHARK Basis and OBASIS are compatible. Storing Pre-screening
Shell pair information
Shell pair cut-off parameter TPreSel        ...   2.5e-12
Total number of shell pairs                 ...    128271
Shell pairs after pre-screening             ...     72394
Total number of primitive shell pairs       ...    467994
Primitive shell pairs kept                  ...    149749
          la=0 lb=0:  22861 shell pairs
          la=1 lb=0:  27499 shell pairs
          la=1 lb=1:   8398 shell pairs
          la=2 lb=0:   7966 shell pairs
          la=2 lb=1:   4728 shell pairs
          la=2 lb=2:    626 shell pairs
          la=3 lb=0:    178 shell pairs
          la=3 lb=1:    111 shell pairs
          la=3 lb=2:     26 shell pairs
          la=3 lb=3:      1 shell pairs

Checking whether 4 symmetric matrices of dimension 1086 fit in memory
:Max Core in MB      =   4096.00
 MB in use           =     97.65
 MB left             =   3998.35
 MB needed           =     18.01
 Data fit in memory  = YES
Calculating RI/J V-Matrix + Cholesky decomp.... done (  0.4 sec)
Calculating Nuclear repulsion               ... done (  0.0 sec) ENN=   9812.570911462446 Eh

Diagonalization of the overlap matrix:
Smallest eigenvalue                        ... 2.242e-04
Time for diagonalization                   ...    0.214 sec
Threshold for overlap eigenvalues          ... 1.000e-07
Number of eigenvalues below threshold      ... 0
Time for construction of square roots      ...    0.077 sec
Total time needed                          ...    0.300 sec

-------------------
DFT GRID GENERATION
-------------------

General Integration Accuracy     IntAcc      ... 4.959
Radial Grid Type                 RadialGrid  ... OptM3 with GC (2021)
Angular Grid (max. ang.)         AngularGrid ... 6 (Lebedev-590)
Angular grid pruning method      GridPruning ... 4 (adaptive)
Weight generation scheme         WeightScheme... mBecke (2022)
Basis function cutoff            BFCut       ... 1.0000e-11
Integration weight cutoff        WCut        ... 1.0000e-14
Partially contracted basis set               ... off
Rotationally invariant grid construction     ... off
Angular grids for H and He will be reduced by one unit

Total number of grid points                  ...  1220300
Total number of batches                      ...    19123
Average number of points per batch           ...       63
Average number of grid points per atom       ...    11405

--------------------
COSX GRID GENERATION
--------------------

GRIDX 1
-------
General Integration Accuracy     IntAcc      ... 4.020
Radial Grid Type                 RadialGrid  ... OptM3 with GC (2021)
Angular Grid (max. ang.)         AngularGrid ... 2 (Lebedev-110)
Angular grid pruning method      GridPruning ... 4 (adaptive)
Weight generation scheme         WeightScheme... mBecke (2022)
Basis function cutoff            BFCut       ... 1.0000e-11
Integration weight cutoff        WCut        ... 1.0000e-14
Partially contracted basis set               ... on
Rotationally invariant grid construction     ... off
Angular grids for H and He will be reduced by one unit

Total number of grid points                  ...   135328
Total number of batches                      ...     1121
Average number of points per batch           ...      120
Average number of grid points per atom       ...     1265
UseSFitting                                  ... on

GRIDX 2
-------
General Integration Accuracy     IntAcc      ... 4.338
Radial Grid Type                 RadialGrid  ... OptM3 with GC (2021)
Angular Grid (max. ang.)         AngularGrid ... 3 (Lebedev-194)
Angular grid pruning method      GridPruning ... 4 (adaptive)
Weight generation scheme         WeightScheme... mBecke (2022)
Basis function cutoff            BFCut       ... 1.0000e-11
Integration weight cutoff        WCut        ... 1.0000e-14
Partially contracted basis set               ... on
Rotationally invariant grid construction     ... off
Angular grids for H and He will be reduced by one unit

Total number of grid points                  ...   290278
Total number of batches                      ...     2322
Average number of points per batch           ...      125
Average number of grid points per atom       ...     2713
UseSFitting                                  ... on

GRIDX 3
-------
General Integration Accuracy     IntAcc      ... 4.871
Radial Grid Type                 RadialGrid  ... OptM3 with GC (2021)
Angular Grid (max. ang.)         AngularGrid ... 4 (Lebedev-302)
Angular grid pruning method      GridPruning ... 4 (adaptive)
Weight generation scheme         WeightScheme... mBecke (2022)
Basis function cutoff            BFCut       ... 1.0000e-11
Integration weight cutoff        WCut        ... 1.0000e-14
Partially contracted basis set               ... on
Rotationally invariant grid construction     ... off
Angular grids for H and He will be reduced by one unit

Total number of grid points                  ...   539197
Total number of batches                      ...     4265
Average number of points per batch           ...      126
Average number of grid points per atom       ...     5039
UseSFitting                                  ... on
Grids setup in  13.9 sec
Initializing property integral containers    ... done (  0.0 sec)

SHARK setup successfully completed in  16.5 seconds

Maximum memory used throughout the entire STARTUP-calculation: 283.5 MB


           ************************************************************
           *        Program running with 32 parallel MPI-processes    *
           *              working on a common directory               *
           ************************************************************
Occupation numbers will be reassigned to an Aufbau configuration
             **** ENERGY FILE WAS UPDATED (1b_opt.en.tmp) ****
Finished Guess after   1.5 sec
Maximum memory used throughout the entire GUESS-calculation: 139.4 MB


           ************************************************************
           *        Program running with 32 parallel MPI-processes    *
           *              working on a common directory               *
           ************************************************************
----------------------------------------D-I-I-S--------------------------------------------
Iteration    Energy (Eh)           Delta-E    RMSDP     MaxDP     DIISErr   Damp  Time(sec)
-------------------------------------------------------------------------------------------
               ***  Starting incremental Fock matrix formation  ***
    1    -3205.3085909695237206     0.00e+00  3.00e-04  3.54e-03  1.51e-02  0.700  25.9
    2    -3205.3103640772096696    -1.77e-03  2.68e-04  3.39e-03  1.26e-02  0.700   7.6
                               ***Turning on AO-DIIS***
    3    -3205.3118772684356372    -1.51e-03  2.47e-04  3.38e-03  1.02e-02  0.700   6.7
    4    -3205.3131020681503287    -1.22e-03  6.70e-04  9.34e-03  7.79e-03  0.000   6.4
                              *** Initializing SOSCF ***
---------------------------------------S-O-S-C-F--------------------------------------
Iteration    Energy (Eh)           Delta-E    RMSDP     MaxDP     MaxGrad    Time(sec)
--------------------------------------------------------------------------------------
    5    -3205.3168187770133954    -3.72e-03  9.20e-05  9.25e-04  1.10e-03     7.6
               *** Restarting incremental Fock matrix formation ***
    6    -3205.3168710406935134    -5.23e-05  5.40e-05  8.92e-04  2.22e-04    22.9
    7    -3205.3168811335490318    -1.01e-05  7.09e-05  1.66e-03  2.26e-04    10.9
    8    -3205.3168805379809783     5.96e-07  3.76e-05  8.59e-04  2.92e-04    11.4
    9    -3205.3168849063094967    -4.37e-06  3.85e-06  5.53e-05  8.87e-06    10.6
   10    -3205.3168849625981238    -5.63e-08  2.04e-06  3.08e-05  7.89e-06     6.7
   11    -3205.3168850420424860    -7.94e-08  2.16e-06  3.09e-05  3.33e-06     5.9
   12    -3205.3168850102774741     3.18e-08  1.36e-06  2.09e-05  1.19e-06     5.7
                  *** Gradient check signals convergence ***

               *****************************************************
               *                     SUCCESS                       *
               *           SCF CONVERGED AFTER  12 CYCLES          *
               *****************************************************

