
                                 *****************
                                 * O   R   C   A *
                                 *****************

                                            #,                                       
                                            ###                                      
                                            ####                                     
                                            #####                                    
                                            ######                                   
                                           ########,                                 
                                     ,,################,,,,,                         
                               ,,#################################,,                 
                          ,,##########################################,,             
                       ,#########################################, ''#####,          
                    ,#############################################,,   '####,        
                  ,##################################################,,,,####,       
                ,###########''''           ''''###############################       
              ,#####''   ,,,,##########,,,,          '''####'''          '####       
            ,##' ,,,,###########################,,,                        '##       
           ' ,,###''''                  '''############,,,                           
         ,,##''                                '''############,,,,        ,,,,,,###''
      ,#''                                            '''#######################'''  
     '                                                          ''''####''''         
             ,#######,   #######,   ,#######,      ##                                
            ,#'     '#,  ##    ##  ,#'     '#,    #''#        ,####,    ,#,          
            ##       ##  ##   ,#'  ##            #'  '#       #'       ,# #          
            ##       ##  #######   ##           ,######,      #####,      #          
            '#,     ,#'  ##    ##  '#,     ,#' ,#      #,     #,   #      #          
             '#######'   ##     ##  '#######'  #'      '#     '####' #    #          



                #########################################################
                #                        -***-                          #
                #          Department of theory and spectroscopy        #
                #                                                       #
                #                      Frank Neese                      #
                #                                                       #
                #     Directorship, Architecture, Infrastructure        #
                #                    SHARK, DRIVERS                     #
                #        Core code/Algorithms in most modules           #
                #                                                       #
                #        Max Planck Institute fuer Kohlenforschung      #
                #                Kaiser Wilhelm Platz 1                 #
                #                 D-45470 Muelheim/Ruhr                 #
                #                      Germany                          #
                #                                                       #
                #                  All rights reserved                  #
                #                        -***-                          #
                #########################################################


                         Program Version 6.1.1  -  RELEASE   -
                                (GIT: $487d211c$)
                          ($2025-11-21 10:33:24 +0100$)


 With contributions from (in alphabetic order):
[Max-Planck-Institut fuer Kohlenforschung]                               
  Daniel Aravena         : Magnetic Suceptibility                        
  Michael Atanasov       : Ab Initio Ligand Field Theory (pilot matlab implementation)
  Alexander A. Auer      : GIAO ZORA, VPT2 properties, NMR spectrum      
  Ute Becker             : All parallelization in ORCA, NUMFREQ, NUMCALC 
  Giovanni Bistoni       : ED, misc. LED, open-shell LED, HFLD           
  Dmytro Bykov           : pre 5.0 version of the SCF Hessian            
  Marcos Casanova-Páez   : Triplet and SCS-CIS(D). UHF-(DLPNO)-IP/EA/STEOM-CCSD. UHF-CVS-IP/STEOM-CCSD   
  Vijay G. Chilkuri      : MRCI spin determinant printing, contributions to CSF-ICE 
  Pauline Colinet        : FMM embedding                                 
  Dipayan Datta          : RHF DLPNO-CCSD density                        
  Achintya Kumar Dutta   : EOM-CC, STEOM-CC                              
  Nicolas Foglia         : Exact transition moments, OPA infrastructure, MCD improvements    
  Dmitry Ganyushin       : Spin-Orbit,Spin-Spin,Magnetic field MRCI      
  Miquel Garcia-Rates    : C-PCM and meta-GGA Hessian, CCSD/C-PCM, Gaussian charge scheme 
  Tiago L. C. Gouveia    : GS-ROHF, GS-ROCIS                             
  Yang Guo               : DLPNO-NEVPT2, F12-NEVPT2, CIM, IAO-localization        
  Andreas Hansen         : Spin unrestricted coupled pair/coupled cluster methods 
  Ingolf Harden          : AUTO-CI MPn and infrastructure                
  Benjamin Helmich-Paris : MC-RPA, TRAH-(SCF,CASSCF), AVAS, COSX integrals, SCF dyn. polar., MC-PDFT, srDFT 
  Lee Huntington         : MR-EOM, pCC                                   
  Robert Izsak           : Overlap fitted RIJCOSX, COSX-SCS-MP3, EOM     
  Riya Kayal             : Wick's Theorem for AUTO-CI, AUTO-CI UHF-CCSDT 
  Emily Kempfer          : AUTO-CI RHF CISDT and CCSDT, approximate NEVPT4
  Christian Kollmar      : KDIIS, OOCD, Brueckner-CCSD(T), CCSD density, CASPT2, CASPT2-K, improved NEVPT2 
  Axel Koslowski         : Symmetry handling                             
  Simone Kossmann        : meta-GGA functionals, TD-DFT gradient, OOMP2, (MP2 Hessian; deprecated post 5.0) 
  Lucas Lang             : DCDCAS, Hyperfine gauge corrections, ICE-SOC+SSC
  Marvin Lechner         : AUTO-CI (C++ implementation), FIC-MRCC        
  Spencer Leger          : CASSCF response                               
  Dagmar Lenk            : GEPOL surface, SMD, ORCA-2-JSON               
  Dimitrios Liakos       : Extrapolation schemes; Compound Job, Property file
  Dimitrios Manganas     : Further ROCIS development; embedding schemes. LFT, Crystal Embedding 
  Dimitrios Pantazis     : SARC Basis sets                               
  Anastasios Papadopoulos: AUTO-CI, single reference methods and gradients 
  Taras Petrenko         : pre 6.0 DFT Hessian and TD-DFT gradient,  ECA, NRVS 
  Petra Pikulova         : Analytic Raman intensities                    
  Peter Pinski           : DLPNO-MP2, DLPNO-MP2 Gradient                 
  Shashank Vittal Rao    : ES-AILFT, MagRelax                            
  Christoph Reimann      : Effective Core Potentials                     
  Marius Retegan         : Local ZFS, SOC                                
  Christoph Riplinger    : Optimizer, TS searches, QM/MM, DLPNO-CCSD(T), (RO)-DLPNO pert. Triples 
  Michael Roemelt        : Original ROCIS implementation, recursive CI coupling coefficients
  Masaaki Saitow         : Open-shell DLPNO-CCSD energy and density      
  Barbara Sandhoefer     : DKH picture change effects                    
  Yorick L. A. Schmerwitz: GMF and freeze-and-release deltaSCF, NEB S-IDPP initial path                    
  Kantharuban Sivalingam : CASSCF convergence/infrastructure, NEVPT2, NEVPT3, NEVPT4(SD), FIC-MRCI and CEPA variants
  Bernardo de Souza      : ESD, SOC TD-DFT                               
  Georgi L. Stoychev     : AutoAux, RI-MP2 NMR, DLPNO-MP2 response, X2C  
  Van Anh Tran           : RI-MP2 g-tensors                              
  Willem Van den Heuvel  : Paramagnetic NMR                              
  Zikuan Wang            : NOTCH, Electric field optimization            
  Frank Wennmohs         : Technical directorship and infrastructure     
  Hang Xu                : AUTO-CI-Response properties                   
                                                                         
[FACCTs GmbH]                                                            
  Markus Bursch, Nicolas Foglia, Miquel Garcia-Rates, Ingolf Harden, Hagen Neugebauer, Anastasios Papadopoulos, 
  Christoph Riplinger, Bernardo de Souza, Georgi L. Stoychev                                                    
                                                                 
  APM, various basis sets, CI-OPT, improved COSX, DLPNO-Multilevel,           
  DOCKER, DRACO, updates on ESD, Fragmentator, GOAT, IRC, LR-CPCM, L-BFGS, MBIS, meta-GGA TD-DFT gradient, ML-optimized integration grids, 
  MM, NACMEs, nearIR, NEB, NEB-TS, NL-DFT gradient (VV10), 2- and 3-layer-ONIOM, interface openCOSMO-RS, QMMM,   
  Crystal-QMMM, RESP, rigid body optimization, SF, symmetry and pop. for TD-DFT, various functionals, SOLVATOR                                   
                                                                         
[Other institutions]                                                     
  V. Asgeirsson          : NEB                                           
  Christoph Bannwarth    : sTDA-DFT, sTD-DFT, PBEh-3c, B97-3c, D3        
  Giovanni Bistoni       : ETS/NOCV, ADLD/ADEX, COVALED                  
  Martin Brehm           : Molecular dynamics                            
  Ronald Cardenas        : ETS/NOCV                                      
  Martina Colucci        : COVALED                                       
  Sebastian Ehlert       : rSCAN, r2SCAN, r2SCAN-3c, D4, dhf basis sets  
  Marvin Friede          : D4 for Fr, Ra, Ac-Lr                          
  Lars Goerigk           : TD-DFT with DH, B97 family of functionals     
  Stefan Grimme          : VdW corrections, initial TS optimization, DFT functionals, gCP, sTDA/sTD-DF 
  Waldemar Hujo          : DFT-NL                                        
  H. Jonsson             : NEB                                           
  Holger Kruse           : gCP                                           
  Marcel Mueller         : wB97X-3c, vDZP basis set                      
  Hagen Neugebauer       : wr2SCAN, Native XTB                           
  Gianluca Regni         : ADLD/ADEX                                     
  Tobias Risthaus        : pre 6.0 range-separated hybrid DFT and stability analysis
  Lukas Wittmann         : regularized MP2, r2SCAN double-hybrids, wr2SCAN        
                                                                         
We gratefully acknowledge several colleagues who have allowed us to      
interface, adapt or use parts of their codes:                            
  Ed Valeev, F. Pavosevic, A. Kumar             : LibInt (2-el integral package), F12 methods 
  Garnet Chan, S. Sharma, J. Yang, R. Olivares  : DMRG                   
  Ulf Ekstrom                                   : XCFun DFT Library      
  Mihaly Kallay                                 : mrcc  (arbitrary order and MRCC methods)
  Frank Weinhold                                : gennbo (NPA and NBO analysis)           
  Simon Mueller                                 : openCOSMO-RS                            
  Christopher J. Cramer and Donald G. Truhlar   : smd solvation model                     
  S Lehtola, MJT Oliveira, MAL Marques          : LibXC Library                           
  Liviu Ungur et al                             : ANISO software                          


 Your calculation uses the libint2 library for the computation of 2-el integrals
 For citations please refer to: http://libint.valeyev.net

 Your ORCA version has been built with support for libXC version: 7.0.0
 For citations please refer to: https://libxc.gitlab.io

 This ORCA versions uses:
   CBLAS   interface :  Fast vector & matrix operations
   LAPACKE interface :  Fast linear algebra routines
   SCALAPACK package :  Parallel linear algebra routines
   Shared memory     :  Shared parallel matrices
   BLAS/LAPACK       :  OpenBLAS 0.3.29  USE64BITINT DYNAMIC_ARCH NO_AFFINITY Cooperlake SINGLE_THREADED
        Core in use  :  Cooperlake
   Copyright (c) 2011-2014, The OpenBLAS Project


  ***********************************
  * Starting time: Thu Jul  9 14:01:32 2026
  * Host name:     c1-38
  * Process ID:    2036250
  * Working dir.:  /cluster/projects/nn14654k/ylvaos/TPhP_bsse/orca/geomopt_wb97x-d4_def2svp
  ***********************************

Your calculation utilizes the atom-pairwise dispersion correction
based on EEQ partial charges (D4)


Warning: RI is on but no J-basis has been assigned. Assigning Def2/J (nothing to worry about!)
================================================================================

cite the ECPs for Ru [Def2-ECP] as follows:
Ce-Yb(ecp-28): M. Dolg, H. Stoll, H.Preuss, J. Chem. Phys., 1989, 90, 1730-1734.
Y-Cd(ecp-28), Hf-Hg(ecp-46): D. Andrae,U. Haeussermann, M. Dolg, H. Stoll, H. Preuss, Theor. Chim. Acta, 1990, 77, 123-141.
In-Sb(ecp-28), Tl-Bi(ecp-46): B. Metz, H. Stoll, M. Dolg, J. Chem. Phys., 2000, 113, 2563-2569.
Te-Xe(ecp-28), Po-Rn(ecp-46): K. A. Peterson, D. Figgen, E. Goll, H. Stoll, M. Dolg, J. Chem. Phys., 2003, 119, 11113-11123.
Rb(ecp-28), Cs(ecp-46): T. Leininger, A. Nicklass, W. Kuechle, H. Stoll, M. Dolg, A. Bergner, Chem. Phys. Lett., 1996, 255, 274-280.
Sr(ecp-28), Ba(ecp-46): M. Kaupp, P. V. Schleyer, H. Stoll and H. Preuss, J. Chem. Phys., 1991, 94, 1360-1366.
La(ecp-46): M. Dolg, H. Stoll, A. Savin, H. Preuss, Theor. Chim. Acta, 1989, 75, 173-194.
Lu(ecp-28): X. Cao, M. Dolg, J. Chem. Phys., 2001, 115, 7348-7355.

ECP parameters for Ru [Def2-ECP] have been obtained from:
TURBOMOLE (7.0.2)

----- Orbital basis set information -----
Your calculation utilizes the basis: def2-SVP
   F. Weigend and R. Ahlrichs, Phys. Chem. Chem. Phys. 7, 3297 (2005).

----- AuxJ basis set information -----
Your calculation utilizes the auxiliary basis: def2/J
   H-Rn: F. Weigend, Phys. Chem. Chem. Phys. 8, 1057 (2006).
   Fr-Lr: K. Eichkorn, F. Weigend, O. Treutler, R. Ahlrichs; Theor. Chem. Acc. 97, 119 (1997).

================================================================================
                                        WARNINGS
                       Please study these warnings very carefully!
================================================================================


WARNING: Geometry Optimization
  ===> : Switching off AutoStart
         For restart on a previous wavefunction, please use MOREAD

================================================================================
                                       INPUT FILE
================================================================================
NAME = 1b_opt.inp
|  1> ! wB97X-D4 def2-SVP TightSCF defgrid3 Opt
|  2> 
|  3> %pal nprocs 32 end
|  4> 
|  5> %loc
|  6>   LocMet NEWBOYS
|  7>   Occ true
|  8> end
|  9> 
| 10> *xyz 0 1
| 11> Ru 0.011212 0.474077 0.299876
| 12> P 2.251692 1.026126 0.082748
| 13> P -2.232460 1.062489 0.093402
| 14> P -0.019697 -1.895845 0.022086
| 15> C 3.324518 0.209394 -1.208563
| 16> C 5.023165 0.792715 3.871623
| 17> C 4.018881 -0.165054 3.654564
| 18> C 3.193687 -0.082633 2.521046
| 19> C 2.514778 2.815383 -0.412278
| 20> C 2.013700 3.837884 0.429778
| 21> C 2.182077 5.189035 0.095820
| 22> C 2.840568 5.546076 -1.095534
| 23> C 3.334127 4.542855 -1.941925
| 24> C 3.181421 3.185711 -1.599839
| 25> C -2.509114 2.756472 -0.663780
| 26> C 2.719976 -0.239083 -2.405189
| 27> C -1.497599 3.405070 -1.403664
| 28> C -1.736671 4.658402 -1.996099
| 29> C -2.985166 5.282568 -1.852442
| 30> C -4.000333 4.647015 -1.115491
| 31> C -3.766308 3.394019 -0.529452
| 32> C -3.209403 1.307966 1.672754
| 33> C -2.559308 1.963568 2.746132
| 34> C -3.230275 2.202408 3.954766
| 35> C -4.563536 1.786815 4.116991
| 36> C -5.222310 1.142213 3.058424
| 37> C 3.492717 -0.829685 -3.419444
| 38> C -4.554913 0.908552 1.842571
| 39> C -3.437288 0.097066 -0.960194
| 40> C -3.814707 0.556463 -2.244433
| 41> C -4.658881 -0.214516 -3.061572
| 42> C -5.148796 -1.450020 -2.608977
| 43> C -4.780593 -1.917288 -1.336690
| 44> C -3.927488 -1.157210 -0.520622
| 45> C 1.447383 -2.830485 0.715371
| 46> C 1.400920 -3.405847 2.007015
| 47> C 2.538604 -4.020263 2.558228
| 48> C 4.878988 -0.986327 -3.248682
| 49> C 3.736478 -4.077726 1.827796
| 50> C 3.793348 -3.511115 0.543304
| 51> C 2.662807 -2.887337 -0.008699
| 52> C -0.147778 -2.651716 -1.678827
| 53> C 0.387796 -3.924490 -1.994681
| 54> C 0.235469 -4.464267 -3.282653
| 55> C -0.455271 -3.746430 -4.273385
| 56> C -0.992784 -2.484745 -3.970631
| 57> C -0.838746 -1.939036 -2.685026
| 58> C -1.363238 -2.846716 0.927502
| 59> C 5.489566 -0.547093 -2.061273
| 60> C -1.813864 -4.115289 0.497486
| 61> C -2.794868 -4.812873 1.221137
| 62> C -3.337699 -4.260046 2.393994
| 63> C -2.899666 -3.000035 2.833373
| 64> C -1.925547 -2.296424 2.102572
| 65> C 4.719748 0.049910 -1.048583
| 66> C 3.365628 0.959843 1.581927
| 67> C 4.384631 1.916468 1.807540
| 68> C 5.204679 1.832721 2.945028
| 69> H 1.478434 3.565194 1.344855
| 70> H 1.790200 5.964427 0.761921
| 71> H 2.964533 6.601143 -1.359548
| 72> H 3.847438 4.809768 -2.871561
| 73> H 3.581830 2.412554 -2.260335
| 74> H 2.723935 -2.436865 -1.002748
| 75> H 4.722722 -3.541461 -0.033680
| 76> H 4.620448 -4.560799 2.255756
| 77> H 2.480548 -4.466364 3.556688
| 78> H 0.466509 -3.386438 2.575247
| 79> H -1.408558 -4.548181 -0.421318
| 80> H -3.136061 -5.790767 0.865758
| 81> H -4.102429 -4.804509 2.956999
| 82> H -3.326214 -2.549504 3.735278
| 83> H -1.622129 -1.295345 2.424531
| 84> H 2.414940 -0.834349 2.359121
| 85> H 3.873509 -0.983948 4.366037
| 86> H 5.660525 0.730046 4.759435
| 87> H 5.983946 2.584509 3.107590
| 88> H 4.522816 2.735721 1.096213
| 89> H 5.199438 0.385451 -0.124662
| 90> H 1.636263 -0.137665 -2.520720
| 91> H 3.005290 -1.178948 -4.335008
| 92> H 5.479945 -1.453447 -4.035442
| 93> H 6.568676 -0.668734 -1.920745
| 94> H -4.558472 2.908356 0.047984
| 95> H -4.975867 5.128954 -0.993590
| 96> H -3.167490 6.261935 -2.306659
| 97> H -0.934747 5.147296 -2.558413
| 98> H -0.518333 2.927554 -1.496836
| 99> H -1.520505 2.288124 2.621537
|100> H -5.076754 0.403883 1.024572
|101> H -6.262604 0.820090 3.173599
|102> H -2.710648 2.714716 4.771232
|103> H -5.085345 1.968254 5.061957
|104> H -3.630548 -1.543367 0.457193
|105> H -3.456222 1.526928 -2.597742
|106> H -4.941209 0.160475 -4.050960
|107> H -5.810526 -2.046971 -3.244432
|108> H -5.146271 -2.883191 -0.975016
|109> H 0.944763 -4.480644 -1.234912
|110> H -1.251091 -0.952394 -2.453526
|111> H -1.538567 -1.919723 -4.732965
|112> H -0.572710 -4.168991 -5.276519
|113> H 0.661357 -5.446668 -3.511798
|114> H 0.101914 -0.079623 1.963299
|115> H 0.041254 0.814939 1.997969
|116> H 0.003903 2.086740 0.388775
|117> H 0.010735 0.723855 -1.311151
|118> **                         ****END OF INPUT****
================================================================================

                       *****************************
                       * Geometry Optimization Run *
                       *****************************

Geometry optimization settings:
Update method            Update   .... BFGS
Choice of coordinates    CoordSys .... (2022) Redundant Internals
Initial Hessian          InHess   .... Almloef's Model
Max. no of cycles        MaxIter  .... 321

Convergence Tolerances:
Energy Change            TolE     ....  5.0000e-06 Eh
Max. Gradient            TolMAXG  ....  3.0000e-04 Eh/bohr
RMS Gradient             TolRMSG  ....  1.0000e-04 Eh/bohr
Max. Displacement        TolMAXD  ....  4.0000e-03 bohr
RMS Displacement         TolRMSD  ....  2.0000e-03 bohr
Strict Convergence                .... False

------------------------------------------------------------------------------
                        ORCA OPTIMIZATION COORDINATE SETUP
------------------------------------------------------------------------------

The optimization will be done in redundant internal coordinates (2022)
Making redundant internal coordinates   ...  (2022 redundants) done
Evaluating the initial hessian          ...  (Almloef) done
Evaluating the coordinates              ...  done
Calculating the B-matrix                .... done
Calculating the G-matrix                .... done
The number of degrees of freedom        ....  613

    -----------------------------------------------------------------
                    Redundant Internal Coordinates


    -----------------------------------------------------------------
         Definition                    Initial Value    Approx d2E/dq
    -----------------------------------------------------------------
      1. B(P   1,Ru  0)                  2.3177         0.703556   
      2. B(P   2,Ru  0)                  2.3287         0.675606   
      3. B(P   3,Ru  0)                  2.3863         0.546700   
      4. B(C   4,P   1)                  1.8669         0.364162   
      5. B(C   6,C   5)                  1.4046         0.592074   
      6. B(C   7,C   6)                  1.4045         0.592401   
      7. B(C   8,P   1)                  1.8750         0.353518   
      8. B(C   9,C   8)                  1.4162         0.567447   
      9. B(C  10,C   9)                  1.4020         0.597943   
     10. B(C  11,C  10)                  1.4073         0.586385   
     11. B(C  12,C  11)                  1.4023         0.597204   
     12. B(C  13,C  12)                  1.4079         0.585033   
     13. B(C  13,C   8)                  1.4113         0.577704   
     14. B(C  14,P   2)                  1.8760         0.352227   
     15. B(C  15,C   4)                  1.4137         0.572723   
     16. B(C  16,C  14)                  1.4111         0.578145   
     17. B(C  17,C  16)                  1.4068         0.587486   
     18. B(C  18,C  17)                  1.4032         0.595230   
     19. B(C  19,C  18)                  1.4063         0.588552   
     20. B(C  20,C  19)                  1.4029         0.595816   
     21. B(C  20,C  14)                  1.4160         0.567888   
     22. B(C  21,P   2)                  1.8732         0.355839   
     23. B(C  22,C  21)                  1.4158         0.568233   
     24. B(C  23,C  22)                  1.4029         0.595949   
     25. B(C  24,C  23)                  1.4059         0.589297   
     26. B(C  25,C  24)                  1.4036         0.594374   
     27. B(C  26,C  15)                  1.4052         0.590814   
     28. B(C  27,C  21)                  1.4138         0.572537   
     29. B(C  27,C  25)                  1.4065         0.587994   
     30. B(C  28,P   2)                  1.8691         0.361228   
     31. B(C  29,C  28)                  1.4152         0.569575   
     32. B(C  30,C  29)                  1.4053         0.590735   
     33. B(C  31,C  30)                  1.4040         0.593387   
     34. B(C  32,C  31)                  1.4045         0.592381   
     35. B(C  33,C  32)                  1.4041         0.593275   
     36. B(C  33,C  28)                  1.4166         0.566651   
     37. B(C  34,P   3)                  1.8726         0.356716   
     38. B(C  35,C  34)                  1.4148         0.570475   
     39. B(C  36,C  35)                  1.4056         0.590031   
     40. B(C  37,C  26)                  1.4055         0.590203   
     41. B(C  38,C  36)                  1.4042         0.593072   
     42. B(C  39,C  38)                  1.4051         0.591162   
     43. B(C  40,C  39)                  1.4043         0.592922   
     44. B(C  40,C  34)                  1.4159         0.568095   
     45. B(C  41,P   3)                  1.8657         0.365828   
     46. B(C  42,C  41)                  1.4165         0.566776   
     47. B(C  43,C  42)                  1.4048         0.591755   
     48. B(C  44,C  43)                  1.4050         0.591348   
     49. B(C  45,C  44)                  1.4044         0.592534   
     50. B(C  46,C  45)                  1.4051         0.591081   
     51. B(C  46,C  41)                  1.4134         0.573267   
     52. B(C  47,P   3)                  1.8786         0.348936   
     53. B(C  48,C  37)                  1.4056         0.590027   
     54. B(C  49,C  47)                  1.4132         0.573662   
     55. B(C  50,C  49)                  1.4045         0.592353   
     56. B(C  51,C  50)                  1.4057         0.589869   
     57. B(C  52,C  51)                  1.4045         0.592437   
     58. B(C  53,C  52)                  1.4064         0.588200   
     59. B(C  53,C  47)                  1.4141         0.571767   
     60. B(C  54,C  48)                  1.4052         0.590875   
     61. B(C  54,C   4)                  1.4134         0.573334   
     62. B(C  55,C   7)                  1.4136         0.572910   
     63. B(C  55,P   1)                  1.8689         0.361559   
     64. B(C  56,C  55)                  1.4158         0.568365   
     65. B(C  57,C  56)                  1.4048         0.591804   
     66. B(C  57,C   5)                  1.4047         0.591985   
     67. B(H  58,C   9)                  1.0946         0.354015   
     68. B(H  59,C  10)                  1.0948         0.353863   
     69. B(H  60,C  11)                  1.0946         0.354014   
     70. B(H  61,C  12)                  1.0950         0.353588   
     71. B(H  62,C  13)                  1.0929         0.356330   
     72. B(H  63,C  40)                  1.0931         0.356066   
     73. B(H  64,C  39)                  1.0943         0.354412   
     74. B(H  65,C  38)                  1.0945         0.354207   
     75. B(H  66,C  36)                  1.0951         0.353384   
     76. B(H  67,C  35)                  1.0938         0.355114   
     77. B(H  68,C  49)                  1.0936         0.355424   
     78. B(H  69,C  50)                  1.0950         0.353571   
     79. B(H  70,C  51)                  1.0946         0.354020   
     80. B(H  71,C  52)                  1.0947         0.353944   
     81. B(H  72,C  53)                  1.0945         0.354226   
     82. B(H  73,C   7)                  1.0944         0.354307   
     83. B(H  74,H  65)                  4.2196         0.010000   
     84. B(H  74,C   6)                  1.0945         0.354206   
     85. B(H  75,C   5)                  1.0947         0.353938   
     86. B(H  76,C  57)                  1.0949         0.353639   
     87. B(H  77,C  56)                  1.0937         0.355193   
     88. B(H  78,C  54)                  1.0938         0.355155   
     89. B(H  79,C  15)                  1.0946         0.354115   
     90. B(H  80,C  26)                  1.0945         0.354257   
     91. B(H  81,H  64)                  4.5768         0.010000   
     92. B(H  81,C  37)                  1.0947         0.353952   
     93. B(H  82,C  48)                  1.0950         0.353547   
     94. B(H  83,C  20)                  1.0940         0.354854   
     95. B(H  84,C  19)                  1.0949         0.353684   
     96. B(H  85,C  18)                  1.0949         0.353730   
     97. B(H  86,H  60)                  4.3307         0.010000   
     98. B(H  86,C  17)                  1.0947         0.353978   
     99. B(H  87,C  16)                  1.0935         0.355546   
    100. B(H  88,C  22)                  1.0954         0.352985   
    101. B(H  89,C  27)                  1.0937         0.355267   
    102. B(H  90,C  25)                  1.0951         0.353418   
    103. B(H  91,C  23)                  1.0950         0.353508   
    104. B(H  92,C  24)                  1.0946         0.354056   
    105. B(H  93,C  33)                  1.0924         0.356894   
    106. B(H  94,C  29)                  1.0932         0.355859   
    107. B(H  95,C  30)                  1.0951         0.353433   
    108. B(H  96,C  31)                  1.0946         0.354131   
    109. B(H  97,H  70)                  4.4991         0.010000   
    110. B(H  97,C  32)                  1.0943         0.354454   
    111. B(H  98,C  42)                  1.0940         0.354887   
    112. B(H  99,C  46)                  1.0941         0.354700   
    113. B(H 100,H  96)                  4.5257         0.010000   
    114. B(H 100,C  45)                  1.0947         0.353987   
    115. B(H 101,H  80)                  4.7570         0.010000   
    116. B(H 101,C  44)                  1.0948         0.353782   
    117. B(H 102,C  43)                  1.0950         0.353561   
    118. B(H 103,Ru  0)                  1.7555         0.316069   
    119. B(H 104,Ru  0)                  1.7322         0.344284   
    120. B(H 105,Ru  0)                  1.6151         0.529346   
    121. B(H 106,Ru  0)                  1.6303         0.500695   
    122. A(P   2,Ru  0,P   3)          103.1874         0.602724   
    123. A(H 103,Ru  0,H 106)          169.9647         0.398736   
    124. A(P   3,Ru  0,H 103)           78.3305         0.458697   
    125. A(H 104,Ru  0,H 106)          159.8140         0.404789   
    126. A(P   1,Ru  0,P   3)          103.7783         0.607459   
    127. A(P   1,Ru  0,H 105)           76.8033         0.528876   
    128. A(H 103,Ru  0,H 105)          105.2485         0.402662   
    129. A(P   2,Ru  0,H 104)           93.0901         0.484422   
    130. A(P   2,Ru  0,H 103)          102.3270         0.476843   
    131. A(H 103,Ru  0,H 104)           29.8066         0.373562   
    132. A(P   1,Ru  0,H 106)           82.6004         0.523371   
    133. A(H 104,Ru  0,H 105)           75.5015         0.408791   
    134. A(H 105,Ru  0,H 106)           84.3421         0.437082   
    135. A(P   3,Ru  0,H 106)           92.1273         0.499266   
    136. A(P   1,Ru  0,H 104)           91.6160         0.488067   
    137. A(P   1,Ru  0,H 103)           96.5431         0.480418   
    138. A(P   2,Ru  0,H 106)           82.7261         0.519404   
    139. A(P   3,Ru  0,H 104)          108.0448         0.465921   
    140. A(P   1,Ru  0,P   2)          149.6432         0.632907   
    141. A(P   2,Ru  0,H 105)           75.4177         0.524859   
    142. A(C   8,P   1,C  55)           99.3227         0.405591   
    143. A(Ru  0,P   1,C  55)          119.5107         0.506936   
    144. A(Ru  0,P   1,C   8)          112.8093         0.504814   
    145. A(C   4,P   1,C  55)          101.3507         0.407724   
    146. A(C   4,P   1,C   8)           98.8717         0.406106   
    147. A(Ru  0,P   1,C   4)          121.0708         0.507615   
    148. A(Ru  0,P   2,C  14)          113.9556         0.500675   
    149. A(Ru  0,P   2,C  28)          122.7187         0.503033   
    150. A(C  14,P   2,C  28)           98.2692         0.405264   
    151. A(C  14,P   2,C  21)           98.3403         0.404189   
    152. A(Ru  0,P   2,C  21)          117.4411         0.501627   
    153. A(C  21,P   2,C  28)          101.9325         0.405995   
    154. A(Ru  0,P   3,C  41)          120.6217         0.484793   
    155. A(Ru  0,P   3,C  47)          117.1191         0.480581   
    156. A(C  34,P   3,C  47)           97.4259         0.403696   
    157. A(C  41,P   3,C  47)          100.6747         0.405498   
    158. A(Ru  0,P   3,C  34)          116.2597         0.482540   
    159. A(C  34,P   3,C  41)          100.9003         0.407081   
    160. A(P   1,C   4,C  15)          118.5884         0.414997   
    161. A(P   1,C   4,C  54)          122.5700         0.415076   
    162. A(C  15,C   4,C  54)          118.8259         0.421977   
    163. A(C   6,C   5,C  57)          119.6890         0.426930   
    164. A(C   6,C   5,H  75)          120.1699         0.349152   
    165. A(C  57,C   5,H  75)          120.1410         0.349143   
    166. A(C   5,C   6,C   7)          120.3165         0.426984   
    167. A(C   5,C   6,H  74)          120.3098         0.349197   
    168. A(C   7,C   6,H  74)          119.3735         0.349229   
    169. A(C   6,C   7,H  73)          119.8132         0.349246   
    170. A(C  55,C   7,H  73)          119.6561         0.347283   
    171. A(C   6,C   7,C  55)          120.5296         0.424476   
    172. A(C   9,C   8,C  13)          118.5540         0.421851   
    173. A(P   1,C   8,C  13)          122.6034         0.413451   
    174. A(P   1,C   8,C   9)          118.8392         0.412138   
    175. A(C   8,C   9,C  10)          120.7774         0.424456   
    176. A(C   8,C   9,H  58)          119.3539         0.346675   
    177. A(C  10,C   9,H  58)          119.8643         0.349746   
    178. A(C  11,C  10,H  59)          120.1914         0.348572   
    179. A(C   9,C  10,H  59)          119.6488         0.349721   
    180. A(C   9,C  10,C  11)          120.1572         0.426957   
    181. A(C  10,C  11,H  60)          120.1134         0.348597   
    182. A(C  10,C  11,C  12)          119.6139         0.426863   
    183. A(C  12,C  11,H  60)          120.2727         0.349673   
    184. A(C  11,C  12,C  13)          120.3176         0.426687   
    185. A(C  11,C  12,H  61)          120.2018         0.349602   
    186. A(C  13,C  12,H  61)          119.4794         0.348391   
    187. A(C   8,C  13,C  12)          120.5720         0.424159   
    188. A(C  12,C  13,H  62)          119.6940         0.348844   
    189. A(C   8,C  13,H  62)          119.7340         0.348104   
    190. A(P   2,C  14,C  20)          119.9471         0.411928   
    191. A(P   2,C  14,C  16)          121.3958         0.413239   
    192. A(C  16,C  14,C  20)          118.6343         0.421967   
    193. A(C  26,C  15,H  79)          120.4785         0.349056   
    194. A(C   4,C  15,H  79)          118.9041         0.347232   
    195. A(C   4,C  15,C  26)          120.6055         0.424248   
    196. A(C  14,C  16,C  17)          120.5635         0.424534   
    197. A(C  14,C  16,H  87)          119.0720         0.348020   
    198. A(C  17,C  16,H  87)          120.3568         0.348961   
    199. A(C  18,C  17,H  86)          120.3802         0.349472   
    200. A(C  16,C  17,C  18)          120.2913         0.426753   
    201. A(C  16,C  17,H  86)          119.3233         0.348701   
    202. A(C  17,C  18,C  19)          119.6644         0.426892   
    203. A(C  19,C  18,H  85)          120.0969         0.348766   
    204. A(C  17,C  18,H  85)          120.2378         0.349431   
    205. A(C  20,C  19,H  84)          119.6861         0.349481   
    206. A(C  18,C  19,C  20)          120.1412         0.426967   
    207. A(C  18,C  19,H  84)          120.1725         0.348759   
    208. A(C  19,C  20,H  83)          119.7481         0.349676   
    209. A(C  14,C  20,C  19)          120.7041         0.424244   
    210. A(C  14,C  20,H  83)          119.5436         0.346858   
    211. A(P   2,C  21,C  22)          117.4130         0.412719   
    212. A(C  22,C  21,C  27)          118.4731         0.421279   
    213. A(P   2,C  21,C  27)          124.0967         0.413272   
    214. A(C  21,C  22,C  23)          120.8229         0.424307   
    215. A(C  23,C  22,H  88)          120.0733         0.349377   
    216. A(C  21,C  22,H  88)          119.1035         0.346586   
    217. A(C  22,C  23,C  24)          120.1753         0.427081   
    218. A(C  22,C  23,H  91)          119.6743         0.349465   
    219. A(C  24,C  23,H  91)          120.1503         0.348804   
    220. A(C  23,C  24,C  25)          119.5923         0.426879   
    221. A(C  25,C  24,H  92)          120.2295         0.349400   
    222. A(C  23,C  24,H  92)          120.1778         0.348895   
    223. A(C  27,C  25,H  90)          119.5250         0.348659   
    224. A(C  24,C  25,H  90)          120.1079         0.349294   
    225. A(C  24,C  25,C  27)          120.3668         0.426709   
    226. A(C  15,C  26,C  37)          120.1013         0.426537   
    227. A(C  37,C  26,H  80)          120.3538         0.349019   
    228. A(C  15,C  26,H  80)          119.5391         0.349080   
    229. A(C  25,C  27,H  89)          119.7882         0.348966   
    230. A(C  21,C  27,H  89)          119.6453         0.347403   
    231. A(C  21,C  27,C  25)          120.5631         0.423860   
    232. A(P   2,C  28,C  33)          120.3623         0.413617   
    233. A(P   2,C  28,C  29)          121.0481         0.413996   
    234. A(C  29,C  28,C  33)          118.4719         0.420680   
    235. A(C  30,C  29,H  94)          119.7418         0.349337   
    236. A(C  28,C  29,C  30)          120.6498         0.423820   
    237. A(C  28,C  29,H  94)          119.6032         0.347197   
    238. A(C  29,C  30,H  95)          119.4961         0.348935   
    239. A(C  29,C  30,C  31)          120.3281         0.426938   
    240. A(C  31,C  30,H  95)          120.1725         0.349198   
    241. A(C  30,C  31,C  32)          119.5570         0.427151   
    242. A(C  32,C  31,H  96)          120.1959         0.349215   
    243. A(C  30,C  31,H  96)          120.2468         0.349315   
    244. A(C  31,C  32,C  33)          120.3766         0.427136   
    245. A(C  33,C  32,H  97)          119.2588         0.349357   
    246. A(C  31,C  32,H  97)          120.3610         0.349268   
    247. A(C  28,C  33,C  32)          120.6108         0.423755   
    248. A(C  32,C  33,H  93)          119.6055         0.349762   
    249. A(C  28,C  33,H  93)          119.7797         0.347066   
    250. A(C  35,C  34,C  40)          118.6035         0.420990   
    251. A(P   3,C  34,C  40)          120.2146         0.412881   
    252. A(P   3,C  34,C  35)          121.0154         0.413188   
    253. A(C  36,C  35,H  67)          119.7019         0.349144   
    254. A(C  34,C  35,H  67)          119.6787         0.347167   
    255. A(C  34,C  35,C  36)          120.6121         0.423849   
    256. A(C  38,C  36,H  66)          120.1868         0.349159   
    257. A(C  35,C  36,H  66)          119.5181         0.348856   
    258. A(C  35,C  36,C  38)          120.2899         0.426806   
    259. A(C  26,C  37,C  48)          119.7528         0.426435   
    260. A(C  48,C  37,H  81)          120.1338         0.348950   
    261. A(C  26,C  37,H  81)          120.1126         0.348968   
    262. A(C  39,C  38,H  65)          120.1826         0.349106   
    263. A(C  36,C  38,H  65)          120.2419         0.349296   
    264. A(C  36,C  38,C  39)          119.5755         0.426952   
    265. A(C  38,C  39,C  40)          120.3916         0.426933   
    266. A(C  40,C  39,H  64)          119.2608         0.349315   
    267. A(C  38,C  39,H  64)          120.3442         0.349140   
    268. A(C  34,C  40,C  39)          120.5245         0.423902   
    269. A(C  39,C  40,H  63)          119.7045         0.349590   
    270. A(C  34,C  40,H  63)          119.7699         0.347079   
    271. A(P   3,C  41,C  42)          122.7757         0.414565   
    272. A(C  42,C  41,C  46)          118.6297         0.421182   
    273. A(P   3,C  41,C  46)          118.5736         0.415405   
    274. A(C  41,C  42,C  43)          120.5762         0.423577   
    275. A(C  43,C  42,H  98)          119.7766         0.349278   
    276. A(C  41,C  42,H  98)          119.6318         0.346750   
    277. A(C  42,C  43,C  44)          120.2327         0.426807   
    278. A(C  42,C  43,H 102)          119.6317         0.349058   
    279. A(C  44,C  43,H 102)          120.1353         0.349017   
    280. A(C  43,C  44,C  45)          119.6793         0.426907   
    281. A(C  45,C  44,H 101)          120.2118         0.349172   
    282. A(C  43,C  44,H 101)          120.1088         0.349054   
    283. A(C  46,C  45,H 100)          119.4313         0.349061   
    284. A(C  44,C  45,H 100)          120.2912         0.349206   
    285. A(C  44,C  45,C  46)          120.2771         0.426873   
    286. A(C  45,C  46,H  99)          120.1659         0.349180   
    287. A(C  41,C  46,H  99)          119.2293         0.347384   
    288. A(C  41,C  46,C  45)          120.6044         0.424354   
    289. A(C  49,C  47,C  53)          118.3819         0.421894   
    290. A(P   3,C  47,C  53)          119.2030         0.411739   
    291. A(P   3,C  47,C  49)          122.3945         0.411981   
    292. A(C  37,C  48,C  54)          120.2383         0.426522   
    293. A(C  54,C  48,H  82)          119.6430         0.348968   
    294. A(C  37,C  48,H  82)          120.1186         0.348883   
    295. A(C  50,C  49,H  68)          119.6801         0.349427   
    296. A(C  47,C  49,H  68)          119.5252         0.347544   
    297. A(C  47,C  49,C  50)          120.7817         0.424570   
    298. A(C  51,C  50,H  69)          120.1127         0.348871   
    299. A(C  49,C  50,H  69)          119.6027         0.349119   
    300. A(C  49,C  50,C  51)          120.2846         0.426692   
    301. A(C  52,C  51,H  70)          120.2128         0.349202   
    302. A(C  50,C  51,H  70)          120.2199         0.348946   
    303. A(C  50,C  51,C  52)          119.5657         0.426703   
    304. A(C  53,C  52,H  71)          119.4779         0.348767   
    305. A(C  51,C  52,H  71)          120.3610         0.349189   
    306. A(C  51,C  52,C  53)          120.1510         0.426487   
    307. A(C  52,C  53,H  72)          119.7851         0.348814   
    308. A(C  47,C  53,H  72)          119.3490         0.347153   
    309. A(C  47,C  53,C  52)          120.8304         0.423785   
    310. A(C   4,C  54,C  48)          120.4750         0.424336   
    311. A(C  48,C  54,H  78)          119.9232         0.349235   
    312. A(C   4,C  54,H  78)          119.5990         0.347466   
    313. A(C   7,C  55,C  56)          118.6838         0.421346   
    314. A(P   1,C  55,C  56)          122.1994         0.413906   
    315. A(P   1,C  55,C   7)          119.1158         0.414493   
    316. A(C  55,C  56,C  57)          120.5918         0.423795   
    317. A(C  57,C  56,H  77)          119.8363         0.349334   
    318. A(C  55,C  56,H  77)          119.5654         0.346963   
    319. A(C   5,C  57,C  56)          120.1883         0.426895   
    320. A(C  56,C  57,H  76)          119.6534         0.349075   
    321. A(C   5,C  57,H  76)          120.1579         0.349093   
    322. D(C   4,P   1,Ru  0,H 103)    120.2674         0.010000   
    323. D(C   4,P   1,Ru  0,H 104)    149.7496         0.010000   
    324. D(C   4,P   1,Ru  0,P   2)   -111.3408         0.010000   
    325. D(C   8,P   1,Ru  0,H 103)   -123.0703         0.010000   
    326. D(C   4,P   1,Ru  0,H 105)   -135.5498         0.010000   
    327. D(C   4,P   1,Ru  0,H 106)    -49.6592         0.010000   
    328. D(C   8,P   1,Ru  0,P   3)    157.3867         0.010000   
    329. D(C   4,P   1,Ru  0,P   3)     40.7244         0.010000   
    330. D(C   8,P   1,Ru  0,P   2)      5.3215         0.010000   
    331. D(C  14,P   2,Ru  0,H 106)    -57.5928         0.010000   
    332. D(C  21,P   2,Ru  0,P   3)     97.7417         0.010000   
    333. D(C  21,P   2,Ru  0,P   1)   -110.1181         0.010000   
    334. D(C  14,P   2,Ru  0,H 105)     28.4225         0.010000   
    335. D(C  21,P   2,Ru  0,H 103)     17.0323         0.010000   
    336. D(C  14,P   2,Ru  0,H 104)    102.5732         0.010000   
    337. D(C  14,P   2,Ru  0,P   1)      4.0588         0.010000   
    338. D(C  14,P   2,Ru  0,H 103)    131.2093         0.010000   
    339. D(C  14,P   2,Ru  0,P   3)   -148.0813         0.010000   
    340. D(C  41,P   3,Ru  0,H 104)    176.6680         0.010000   
    341. D(C  41,P   3,Ru  0,H 106)     -4.0911         0.010000   
    342. D(C  41,P   3,Ru  0,H 103)    179.0425         0.010000   
    343. D(C  41,P   3,Ru  0,P   2)     78.9344         0.010000   
    344. D(C  34,P   3,Ru  0,H 104)    -60.8487         0.010000   
    345. D(C  34,P   3,Ru  0,H 103)    -58.4742         0.010000   
    346. D(C  34,P   3,Ru  0,H 106)    118.3922         0.010000   
    347. D(C  34,P   3,Ru  0,P   2)   -158.5823         0.010000   
    348. D(C  34,P   3,Ru  0,P   1)     35.4913         0.010000   
    349. D(C  41,P   3,Ru  0,P   1)    -86.9920         0.010000   
    350. D(C  15,C   4,P   1,C  55)    164.2201         0.010000   
    351. D(C  15,C   4,P   1,C   8)    -94.3271         0.010000   
    352. D(C  15,C   4,P   1,Ru  0)     29.1863         0.010000   
    353. D(C  54,C   4,P   1,Ru  0)   -152.2746         0.010000   
    354. D(C  54,C   4,P   1,C   8)     84.2120         0.010000   
    355. D(H  74,C   6,C   5,H  75)     -0.5550         0.024133   
    356. D(C   7,C   6,C   5,C  57)     -0.3226         0.024133   
    357. D(H  74,C   6,C   5,C  57)    179.5383         0.024133   
    358. D(C   7,C   6,C   5,H  75)    179.5841         0.024133   
    359. D(H  73,C   7,C   6,C   5)    179.8904         0.024161   
    360. D(C  55,C   7,C   6,H  74)   -179.5941         0.024161   
    361. D(C  55,C   7,C   6,C   5)      0.2681         0.024161   
    362. D(H  73,C   7,C   6,H  74)      0.0282         0.024161   
    363. D(C  13,C   8,P   1,C   4)      9.1528         0.010000   
    364. D(C  13,C   8,P   1,Ru  0)   -120.0675         0.010000   
    365. D(C   9,C   8,P   1,C  55)    -68.3719         0.010000   
    366. D(C   9,C   8,P   1,C   4)   -171.5211         0.010000   
    367. D(C   9,C   8,P   1,Ru  0)     59.2586         0.010000   
    368. D(H  58,C   9,C   8,P   1)     -0.4658         0.022080   
    369. D(C  10,C   9,C   8,C  13)     -0.3495         0.022080   
    370. D(H  58,C   9,C   8,C  13)    178.8879         0.022080   
    371. D(C  10,C   9,C   8,P   1)   -179.7032         0.022080   
    372. D(H  59,C  10,C   9,C   8)   -179.7954         0.024639   
    373. D(H  59,C  10,C   9,H  58)      0.9711         0.024639   
    374. D(C  11,C  10,C   9,H  58)   -178.4462         0.024639   
    375. D(C  11,C  10,C   9,C   8)      0.7873         0.024639   
    376. D(H  60,C  11,C  10,H  59)      0.0933         0.023648   
    377. D(C  12,C  11,C  10,H  59)   -179.8023         0.023648   
    378. D(C  12,C  11,C  10,C   9)     -0.3881         0.023648   
    379. D(H  60,C  11,C  10,C   9)    179.5074         0.023648   
    380. D(H  61,C  12,C  11,H  60)      0.0644         0.024575   
    381. D(H  61,C  12,C  11,C  10)    179.9598         0.024575   
    382. D(C  13,C  12,C  11,H  60)    179.6651         0.024575   
    383. D(C  13,C  12,C  11,C  10)     -0.4395         0.024575   
    384. D(C  12,C  13,C   8,P   1)    178.8470         0.022921   
    385. D(H  62,C  13,C  12,H  61)      0.4230         0.023534   
    386. D(H  62,C  13,C  12,C  11)   -179.1806         0.023534   
    387. D(C   8,C  13,C  12,H  61)   -179.5165         0.023534   
    388. D(C   8,C  13,C  12,C  11)      0.8800         0.023534   
    389. D(H  62,C  13,C   8,C   9)    179.5797         0.022921   
    390. D(H  62,C  13,C   8,P   1)     -1.0924         0.022921   
    391. D(C  12,C  13,C   8,C   9)     -0.4809         0.022921   
    392. D(C  16,C  14,P   2,C  21)    143.6368         0.010000   
    393. D(C  20,C  14,P   2,Ru  0)   -163.2103         0.010000   
    394. D(C  16,C  14,P   2,C  28)   -112.9206         0.010000   
    395. D(C  20,C  14,P   2,C  21)    -38.1246         0.010000   
    396. D(C  16,C  14,P   2,Ru  0)     18.5511         0.010000   
    397. D(H  79,C  15,C   4,C  54)    178.5780         0.022510   
    398. D(H  79,C  15,C   4,P   1)     -2.8273         0.022510   
    399. D(C  26,C  15,C   4,C  54)     -0.1738         0.022510   
    400. D(C  26,C  15,C   4,P   1)    178.4210         0.022510   
    401. D(H  87,C  16,C  14,C  20)    178.9095         0.022958   
    402. D(H  87,C  16,C  14,P   2)     -2.8293         0.022958   
    403. D(C  17,C  16,C  14,C  20)     -0.0866         0.022958   
    404. D(C  17,C  16,C  14,P   2)    178.1746         0.022958   
    405. D(H  86,C  17,C  16,H  87)      0.4943         0.023742   
    406. D(H  86,C  17,C  16,C  14)    179.4775         0.023742   
    407. D(C  18,C  17,C  16,H  87)   -178.6838         0.023742   
    408. D(C  18,C  17,C  16,C  14)      0.2994         0.023742   
    409. D(H  85,C  18,C  17,H  86)      0.3043         0.024404   
    410. D(H  85,C  18,C  17,C  16)    179.4737         0.024404   
    411. D(C  19,C  18,C  17,H  86)   -179.3588         0.024404   
    412. D(C  19,C  18,C  17,C  16)     -0.1894         0.024404   
    413. D(H  84,C  19,C  18,H  85)      0.0077         0.023832   
    414. D(H  84,C  19,C  18,C  17)    179.6713         0.023832   
    415. D(C  20,C  19,C  18,H  85)   -179.7948         0.023832   
    416. D(C  20,C  19,C  18,C  17)     -0.1312         0.023832   
    417. D(H  83,C  20,C  19,C  18)    179.6020         0.024454   
    418. D(C  14,C  20,C  19,H  84)   -179.4575         0.024454   
    419. D(C  14,C  20,C  19,C  18)      0.3460         0.024454   
    420. D(H  83,C  20,C  14,C  16)   -179.4927         0.022115   
    421. D(H  83,C  20,C  14,P   2)      2.2202         0.022115   
    422. D(C  19,C  20,C  14,C  16)     -0.2352         0.022115   
    423. D(H  83,C  20,C  19,H  84)     -0.2015         0.024454   
    424. D(C  19,C  20,C  14,P   2)   -178.5222         0.022115   
    425. D(C  27,C  21,P   2,C  14)     95.7382         0.010000   
    426. D(C  27,C  21,P   2,Ru  0)   -141.6789         0.010000   
    427. D(C  22,C  21,P   2,C  28)    176.9299         0.010000   
    428. D(C  22,C  21,P   2,C  14)    -82.7264         0.010000   
    429. D(C  22,C  21,P   2,Ru  0)     39.8565         0.010000   
    430. D(H  88,C  22,C  21,C  27)   -179.2817         0.022144   
    431. D(H  88,C  22,C  21,P   2)     -0.7281         0.022144   
    432. D(C  23,C  22,C  21,C  27)      0.5044         0.022144   
    433. D(C  23,C  22,C  21,P   2)    179.0580         0.022144   
    434. D(H  91,C  23,C  22,H  88)      0.0328         0.024466   
    435. D(H  91,C  23,C  22,C  21)   -179.7513         0.024466   
    436. D(C  24,C  23,C  22,H  88)    179.9983         0.024466   
    437. D(C  24,C  23,C  22,C  21)      0.2142         0.024466   
    438. D(H  92,C  24,C  23,H  91)     -0.3708         0.023895   
    439. D(H  92,C  24,C  23,C  22)    179.6639         0.023895   
    440. D(C  25,C  24,C  23,H  91)    179.4111         0.023895   
    441. D(C  25,C  24,C  23,C  22)     -0.5542         0.023895   
    442. D(H  90,C  25,C  24,H  92)      0.1322         0.024330   
    443. D(H  90,C  25,C  24,C  23)   -179.6496         0.024330   
    444. D(C  27,C  25,C  24,H  92)    179.9495         0.024330   
    445. D(C  27,C  25,C  24,C  23)      0.1677         0.024330   
    446. D(H  80,C  26,C  15,C   4)    179.4481         0.024025   
    447. D(C  37,C  26,C  15,H  79)   -178.4043         0.024025   
    448. D(C  37,C  26,C  15,C   4)      0.3278         0.024025   
    449. D(H  80,C  26,C  15,H  79)      0.7160         0.024025   
    450. D(H  89,C  27,C  25,H  90)     -0.2890         0.023785   
    451. D(H  89,C  27,C  25,C  24)    179.8926         0.023785   
    452. D(C  21,C  27,C  25,H  90)   -179.6171         0.023785   
    453. D(C  21,C  27,C  25,C  24)      0.5645         0.023785   
    454. D(H  89,C  27,C  21,C  22)    179.7801         0.022495   
    455. D(H  89,C  27,C  21,P   2)      1.3307         0.022495   
    456. D(C  25,C  27,C  21,C  22)     -0.8909         0.022495   
    457. D(C  25,C  27,C  21,P   2)   -179.3403         0.022495   
    458. D(C  33,C  28,P   2,C  14)   -159.7344         0.010000   
    459. D(C  33,C  28,P   2,Ru  0)     74.7419         0.010000   
    460. D(C  29,C  28,P   2,C  21)    124.6710         0.010000   
    461. D(C  29,C  28,P   2,C  14)     24.2706         0.010000   
    462. D(C  29,C  28,P   2,Ru  0)   -101.2532         0.010000   
    463. D(H  94,C  29,C  28,C  33)    179.3133         0.022253   
    464. D(H  94,C  29,C  28,P   2)     -4.6177         0.022253   
    465. D(C  30,C  29,C  28,C  33)      0.1401         0.022253   
    466. D(C  30,C  29,C  28,P   2)    176.2091         0.022253   
    467. D(H  95,C  30,C  29,H  94)      0.6586         0.024018   
    468. D(H  95,C  30,C  29,C  28)    179.8307         0.024018   
    469. D(C  31,C  30,C  29,H  94)   -178.6801         0.024018   
    470. D(C  31,C  30,C  29,C  28)      0.4919         0.024018   
    471. D(H  96,C  31,C  30,H  95)      0.3394         0.024245   
    472. D(H  96,C  31,C  30,C  29)    179.6736         0.024245   
    473. D(C  32,C  31,C  30,H  95)   -179.8682         0.024245   
    474. D(C  32,C  31,C  30,C  29)     -0.5340         0.024245   
    475. D(H  97,C  32,C  31,H  96)      0.4370         0.024159   
    476. D(H  97,C  32,C  31,C  30)   -179.3556         0.024159   
    477. D(C  33,C  32,C  31,H  96)    179.7345         0.024159   
    478. D(C  33,C  32,C  31,C  30)     -0.0580         0.024159   
    479. D(H  93,C  33,C  32,H  97)      0.7252         0.024236   
    480. D(H  93,C  33,C  32,C  31)   -178.5801         0.024236   
    481. D(C  28,C  33,C  32,H  97)   -179.9962         0.024236   
    482. D(C  28,C  33,C  32,C  31)      0.6986         0.024236   
    483. D(H  93,C  33,C  28,C  29)    178.5452         0.022015   
    484. D(H  93,C  33,C  28,P   2)      2.4483         0.022015   
    485. D(C  32,C  33,C  28,C  29)     -0.7322         0.022015   
    486. D(C  32,C  33,C  28,P   2)   -176.8290         0.022015   
    487. D(C  40,C  34,P   3,C  47)    154.7518         0.010000   
    488. D(C  40,C  34,P   3,C  41)     52.3168         0.010000   
    489. D(C  40,C  34,P   3,Ru  0)    -80.0154         0.010000   
    490. D(C  35,C  34,P   3,C  47)    -30.0029         0.010000   
    491. D(C  35,C  34,P   3,C  41)   -132.4379         0.010000   
    492. D(C  35,C  34,P   3,Ru  0)     95.2299         0.010000   
    493. D(H  67,C  35,C  34,C  40)   -178.9987         0.022326   
    494. D(H  67,C  35,C  34,P   3)      5.6811         0.022326   
    495. D(C  36,C  35,C  34,C  40)      0.0143         0.022326   
    496. D(C  36,C  35,C  34,P   3)   -175.3059         0.022326   
    497. D(H  66,C  36,C  35,H  67)     -0.5464         0.023958   
    498. D(H  66,C  36,C  35,C  34)   -179.5592         0.023958   
    499. D(C  38,C  36,C  35,H  67)    178.6220         0.023958   
    500. D(C  38,C  36,C  35,C  34)     -0.3908         0.023958   
    501. D(H  81,C  37,C  26,H  80)      0.4116         0.023973   
    502. D(H  81,C  37,C  26,C  15)    179.5246         0.023973   
    503. D(C  48,C  37,C  26,H  80)   -179.2690         0.023973   
    504. D(C  48,C  37,C  26,C  15)     -0.1560         0.023973   
    505. D(H  65,C  38,C  36,H  66)     -0.5283         0.024218   
    506. D(H  65,C  38,C  36,C  35)   -179.6912         0.024218   
    507. D(C  39,C  38,C  36,H  66)    179.4627         0.024218   
    508. D(C  39,C  38,C  36,C  35)      0.2998         0.024218   
    509. D(H  64,C  39,C  38,H  65)     -0.5148         0.024055   
    510. D(H  64,C  39,C  38,C  36)    179.4942         0.024055   
    511. D(C  40,C  39,C  38,H  65)   -179.8419         0.024055   
    512. D(C  40,C  39,C  38,C  36)      0.1671         0.024055   
    513. D(H  63,C  40,C  39,C  38)    179.0733         0.024205   
    514. D(C  34,C  40,C  39,H  64)   -179.8820         0.024205   
    515. D(C  34,C  40,C  39,C  38)     -0.5477         0.024205   
    516. D(H  63,C  40,C  34,C  35)   -179.1683         0.022132   
    517. D(H  63,C  40,C  34,P   3)     -3.8095         0.022132   
    518. D(C  39,C  40,C  34,C  35)      0.4524         0.022132   
    519. D(H  63,C  40,C  39,H  64)     -0.2610         0.024205   
    520. D(C  39,C  40,C  34,P   3)    175.8113         0.022132   
    521. D(C  46,C  41,P   3,C  47)    100.6914         0.010000   
    522. D(C  46,C  41,P   3,C  34)   -159.5071         0.010000   
    523. D(C  46,C  41,P   3,Ru  0)    -29.8962         0.010000   
    524. D(C  42,C  41,P   3,C  47)    -77.6159         0.010000   
    525. D(C  42,C  41,P   3,C  34)     22.1856         0.010000   
    526. D(C  42,C  41,P   3,Ru  0)    151.7965         0.010000   
    527. D(H  98,C  42,C  41,C  46)    178.6490         0.022025   
    528. D(H  98,C  42,C  41,P   3)     -3.0446         0.022025   
    529. D(C  43,C  42,C  41,C  46)      0.0819         0.022025   
    530. D(C  43,C  42,C  41,P   3)    178.3883         0.022025   
    531. D(H 102,C  43,C  42,H  98)      1.0384         0.024105   
    532. D(H 102,C  43,C  42,C  41)    179.6034         0.024105   
    533. D(C  44,C  43,C  42,H  98)   -178.7405         0.024105   
    534. D(C  44,C  43,C  42,C  41)     -0.1754         0.024105   
    535. D(H 101,C  44,C  43,H 102)      0.2166         0.024070   
    536. D(H 101,C  44,C  43,C  42)    179.9944         0.024070   
    537. D(C  45,C  44,C  43,H 102)   -179.7320         0.024070   
    538. D(C  45,C  44,C  43,C  42)      0.0458         0.024070   
    539. D(H 100,C  45,C  44,H 101)      0.4602         0.024172   
    540. D(H 100,C  45,C  44,C  43)   -179.5913         0.024172   
    541. D(C  46,C  45,C  44,H 101)   -179.7723         0.024172   
    542. D(C  46,C  45,C  44,C  43)      0.1762         0.024172   
    543. D(H  99,C  46,C  45,H 100)     -0.7354         0.024048   
    544. D(H  99,C  46,C  45,C  44)    179.4951         0.024048   
    545. D(C  41,C  46,C  45,H 100)    179.4985         0.024048   
    546. D(C  41,C  46,C  45,C  44)     -0.2709         0.024048   
    547. D(H  99,C  46,C  41,C  42)   -179.6278         0.022555   
    548. D(H  99,C  46,C  41,P   3)      1.9937         0.022555   
    549. D(C  45,C  46,C  41,C  42)      0.1404         0.022555   
    550. D(C  45,C  46,C  41,P   3)   -178.2381         0.022555   
    551. D(C  53,C  47,P   3,C  41)   -158.3952         0.010000   
    552. D(C  53,C  47,P   3,C  34)     98.9764         0.010000   
    553. D(C  53,C  47,P   3,Ru  0)    -25.6376         0.010000   
    554. D(C  49,C  47,P   3,C  41)     23.2828         0.010000   
    555. D(C  49,C  47,P   3,C  34)    -79.3456         0.010000   
    556. D(C  49,C  47,P   3,Ru  0)    156.0404         0.010000   
    557. D(H  82,C  48,C  37,H  81)      0.1465         0.023958   
    558. D(H  82,C  48,C  37,C  26)    179.8270         0.023958   
    559. D(C  54,C  48,C  37,H  81)   -179.8472         0.023958   
    560. D(C  54,C  48,C  37,C  26)     -0.1667         0.023958   
    561. D(H  68,C  49,C  47,C  53)    178.5928         0.022587   
    562. D(H  68,C  49,C  47,P   3)     -3.0721         0.022587   
    563. D(C  50,C  49,C  47,C  53)     -0.0946         0.022587   
    564. D(C  50,C  49,C  47,P   3)    178.2405         0.022587   
    565. D(H  69,C  50,C  49,H  68)      0.7958         0.024156   
    566. D(H  69,C  50,C  49,C  47)    179.4811         0.024156   
    567. D(C  51,C  50,C  49,H  68)   -179.1356         0.024156   
    568. D(C  51,C  50,C  49,C  47)     -0.4502         0.024156   
    569. D(H  70,C  51,C  50,H  69)      0.0507         0.023944   
    570. D(H  70,C  51,C  50,C  49)    179.9818         0.023944   
    571. D(C  52,C  51,C  50,H  69)   -179.4772         0.023944   
    572. D(C  52,C  51,C  50,C  49)      0.4538         0.023944   
    573. D(H  71,C  52,C  51,H  70)     -0.6014         0.024164   
    574. D(H  71,C  52,C  51,C  50)    178.9266         0.024164   
    575. D(C  53,C  52,C  51,H  70)   -179.4412         0.024164   
    576. D(C  53,C  52,C  51,C  50)      0.0868         0.024164   
    577. D(H  72,C  53,C  52,H  71)     -1.6690         0.023802   
    578. D(H  72,C  53,C  52,C  51)    177.1811         0.023802   
    579. D(C  47,C  53,C  52,H  71)   -179.4907         0.023802   
    580. D(C  47,C  53,C  52,C  51)     -0.6406         0.023802   
    581. D(H  72,C  53,C  47,C  49)   -177.1927         0.022432   
    582. D(H  72,C  53,C  47,P   3)      4.4178         0.022432   
    583. D(C  52,C  53,C  47,C  49)      0.6384         0.022432   
    584. D(C  52,C  53,C  47,P   3)   -177.7512         0.022432   
    585. D(H  78,C  54,C  48,H  82)     -0.2887         0.024030   
    586. D(H  78,C  54,C  48,C  37)    179.7051         0.024030   
    587. D(C   4,C  54,C  48,H  82)   -179.6728         0.024030   
    588. D(C   4,C  54,C  48,C  37)      0.3210         0.024030   
    589. D(H  78,C  54,C   4,C  15)   -179.5359         0.022560   
    590. D(H  78,C  54,C   4,P   1)      1.9283         0.022560   
    591. D(C  48,C  54,C   4,C  15)     -0.1499         0.022560   
    592. D(C  48,C  54,C   4,P   1)   -178.6857         0.022560   
    593. D(C  56,C  55,C   7,H  73)   -179.6181         0.022525   
    594. D(C  56,C  55,C   7,C   6)      0.0049         0.022525   
    595. D(P   1,C  55,C   7,H  73)      0.0376         0.022525   
    596. D(P   1,C  55,C   7,C   6)    179.6605         0.022525   
    597. D(C  56,C  55,P   1,C   4)     82.1957         0.010000   
    598. D(C  56,C  55,P   1,Ru  0)   -141.8744         0.010000   
    599. D(C   7,C  55,P   1,C   8)    161.4622         0.010000   
    600. D(C   7,C  55,P   1,C   4)    -97.4473         0.010000   
    601. D(C   7,C  55,P   1,Ru  0)     38.4826         0.010000   
    602. D(H  77,C  56,C  55,C   7)   -179.2967         0.022154   
    603. D(H  77,C  56,C  55,P   1)      1.0588         0.022154   
    604. D(C  57,C  56,C  55,C   7)     -0.2229         0.022154   
    605. D(C  57,C  56,C  55,P   1)   -179.8673         0.022154   
    606. D(H  76,C  57,C  56,H  77)     -0.5409         0.024109   
    607. D(H  76,C  57,C  56,C  55)   -179.6122         0.024109   
    608. D(C   5,C  57,C  56,H  77)    179.2408         0.024109   
    609. D(C   5,C  57,C  56,C  55)      0.1695         0.024109   
    610. D(H  76,C  57,C   5,H  75)     -0.0215         0.024125   
    611. D(H  76,C  57,C   5,C   6)    179.8852         0.024125   
    612. D(C  56,C  57,C   5,H  75)   -179.8021         0.024125   
    613. D(C  56,C  57,C   5,C   6)      0.1047         0.024125   
    -----------------------------------------------------------------

Number of atoms                         .... 107
Number of degrees of freedom            .... 613


         *************************************************************
         *                GEOMETRY OPTIMIZATION CYCLE   1            *
         *************************************************************
---------------------------------
CARTESIAN COORDINATES (ANGSTROEM)
---------------------------------
  Ru     0.011212    0.474077    0.299876
  P      2.251692    1.026126    0.082748
  P     -2.232460    1.062489    0.093402
  P     -0.019697   -1.895845    0.022086
  C      3.324518    0.209394   -1.208563
  C      5.023165    0.792715    3.871623
  C      4.018881   -0.165054    3.654564
  C      3.193687   -0.082633    2.521046
  C      2.514778    2.815383   -0.412278
  C      2.013700    3.837884    0.429778
  C      2.182077    5.189035    0.095820
  C      2.840568    5.546076   -1.095534
  C      3.334127    4.542855   -1.941925
  C      3.181421    3.185711   -1.599839
  C     -2.509114    2.756472   -0.663780
  C      2.719976   -0.239083   -2.405189
  C     -1.497599    3.405070   -1.403664
  C     -1.736671    4.658402   -1.996099
  C     -2.985166    5.282568   -1.852442
  C     -4.000333    4.647015   -1.115491
  C     -3.766308    3.394019   -0.529452
  C     -3.209403    1.307966    1.672754
  C     -2.559308    1.963568    2.746132
  C     -3.230275    2.202408    3.954766
  C     -4.563536    1.786815    4.116991
  C     -5.222310    1.142213    3.058424
  C      3.492717   -0.829685   -3.419444
  C     -4.554913    0.908552    1.842571
  C     -3.437288    0.097066   -0.960194
  C     -3.814707    0.556463   -2.244433
  C     -4.658881   -0.214516   -3.061572
  C     -5.148796   -1.450020   -2.608977
  C     -4.780593   -1.917288   -1.336690
  C     -3.927488   -1.157210   -0.520622
  C      1.447383   -2.830485    0.715371
  C      1.400920   -3.405847    2.007015
  C      2.538604   -4.020263    2.558228
  C      4.878988   -0.986327   -3.248682
  C      3.736478   -4.077726    1.827796
  C      3.793348   -3.511115    0.543304
  C      2.662807   -2.887337   -0.008699
  C     -0.147778   -2.651716   -1.678827
  C      0.387796   -3.924490   -1.994681
  C      0.235469   -4.464267   -3.282653
  C     -0.455271   -3.746430   -4.273385
  C     -0.992784   -2.484745   -3.970631
  C     -0.838746   -1.939036   -2.685026
  C     -1.363238   -2.846716    0.927502
  C      5.489566   -0.547093   -2.061273
  C     -1.813864   -4.115289    0.497486
  C     -2.794868   -4.812873    1.221137
  C     -3.337699   -4.260046    2.393994
  C     -2.899666   -3.000035    2.833373
  C     -1.925547   -2.296424    2.102572
  C      4.719748    0.049910   -1.048583
  C      3.365628    0.959843    1.581927
  C      4.384631    1.916468    1.807540
  C      5.204679    1.832721    2.945028
  H      1.478434    3.565194    1.344855
  H      1.790200    5.964427    0.761921
  H      2.964533    6.601143   -1.359548
  H      3.847438    4.809768   -2.871561
  H      3.581830    2.412554   -2.260335
  H      2.723935   -2.436865   -1.002748
  H      4.722722   -3.541461   -0.033680
  H      4.620448   -4.560799    2.255756
  H      2.480548   -4.466364    3.556688
  H      0.466509   -3.386438    2.575247
  H     -1.408558   -4.548181   -0.421318
  H     -3.136061   -5.790767    0.865758
  H     -4.102429   -4.804509    2.956999
  H     -3.326214   -2.549504    3.735278
  H     -1.622129   -1.295345    2.424531
  H      2.414940   -0.834349    2.359121
  H      3.873509   -0.983948    4.366037
  H      5.660525    0.730046    4.759435
  H      5.983946    2.584509    3.107590
  H      4.522816    2.735721    1.096213
  H      5.199438    0.385451   -0.124662
  H      1.636263   -0.137665   -2.520720
  H      3.005290   -1.178948   -4.335008
  H      5.479945   -1.453447   -4.035442
  H      6.568676   -0.668734   -1.920745
  H     -4.558472    2.908356    0.047984
  H     -4.975867    5.128954   -0.993590
  H     -3.167490    6.261935   -2.306659
  H     -0.934747    5.147296   -2.558413
  H     -0.518333    2.927554   -1.496836
  H     -1.520505    2.288124    2.621537
  H     -5.076754    0.403883    1.024572
  H     -6.262604    0.820090    3.173599
  H     -2.710648    2.714716    4.771232
  H     -5.085345    1.968254    5.061957
  H     -3.630548   -1.543367    0.457193
  H     -3.456222    1.526928   -2.597742
  H     -4.941209    0.160475   -4.050960
  H     -5.810526   -2.046971   -3.244432
  H     -5.146271   -2.883191   -0.975016
  H      0.944763   -4.480644   -1.234912
  H     -1.251091   -0.952394   -2.453526
  H     -1.538567   -1.919723   -4.732965
  H     -0.572710   -4.168991   -5.276519
  H      0.661357   -5.446668   -3.511798
  H      0.101914   -0.079623    1.963299
  H      0.041254    0.814939    1.997969
  H      0.003903    2.086740    0.388775
  H      0.010735    0.723855   -1.311151

----------------------------
CARTESIAN COORDINATES (A.U.)
----------------------------
  NO LB      ZA    FRAG     MASS         X           Y           Z
   0 Ru   16.0000*   0   101.070    0.021188    0.895876    0.566684
   1 P    15.0000    0    30.974    4.255081    1.939097    0.156371
   2 P    15.0000    0    30.974   -4.218738    2.007813    0.176504
   3 P    15.0000    0    30.974   -0.037222   -3.582628    0.041736
   4 C     6.0000    0    12.011    6.282429    0.395697   -2.283853
   5 C     6.0000    0    12.011    9.492406    1.498014    7.316307
   6 C     6.0000    0    12.011    7.594584   -0.311907    6.906125
   7 C     6.0000    0    12.011    6.035194   -0.156154    4.764087
   8 C     6.0000    0    12.011    4.752242    5.320303   -0.779093
   9 C     6.0000    0    12.011    3.805342    7.252550    0.812163
  10 C     6.0000    0    12.011    4.123528    9.805855    0.181074
  11 C     6.0000    0    12.011    5.367896   10.480565   -2.070259
  12 C     6.0000    0    12.011    6.300587    8.584752   -3.669706
  13 C     6.0000    0    12.011    6.012014    6.020121   -3.023258
  14 C     6.0000    0    12.011   -4.741538    5.208977   -1.254362
  15 C     6.0000    0    12.011    5.140010   -0.451801   -4.545149
  16 C     6.0000    0    12.011   -2.830052    6.434650   -2.652541
  17 C     6.0000    0    12.011   -3.281833    8.803104   -3.772080
  18 C     6.0000    0    12.011   -5.641146    9.982607   -3.500608
  19 C     6.0000    0    12.011   -7.559534    8.781586   -2.107972
  20 C     6.0000    0    12.011   -7.117291    6.413766   -1.000519
  21 C     6.0000    0    12.011   -6.064893    2.471698    3.161047
  22 C     6.0000    0    12.011   -4.836391    3.710606    5.189437
  23 C     6.0000    0    12.011   -6.104335    4.161948    7.473425
  24 C     6.0000    0    12.011   -8.623833    3.376591    7.779985
  25 C     6.0000    0    12.011   -9.868736    2.158470    5.779584
  26 C     6.0000    0    12.011    6.600279   -1.567877   -6.461813
  27 C     6.0000    0    12.011   -8.607538    1.716914    3.481955
  28 C     6.0000    0    12.011   -6.495533    0.183428   -1.814504
  29 C     6.0000    0    12.011   -7.208752    1.051563   -4.241364
  30 C     6.0000    0    12.011   -8.804009   -0.405376   -5.785533
  31 C     6.0000    0    12.011   -9.729814   -2.740141   -4.930252
  32 C     6.0000    0    12.011   -9.034012   -3.623149   -2.525978
  33 C     6.0000    0    12.011   -7.421877   -2.186810   -0.983833
  34 C     6.0000    0    12.011    2.735157   -5.348841    1.351855
  35 C     6.0000    0    12.011    2.647355   -6.436118    3.792709
  36 C     6.0000    0    12.011    4.797266   -7.597196    4.834350
  37 C     6.0000    0    12.011    9.219951   -1.863888   -6.139119
  38 C     6.0000    0    12.011    7.060920   -7.705785    3.454034
  39 C     6.0000    0    12.011    7.168389   -6.635046    1.026696
  40 C     6.0000    0    12.011    5.031976   -5.456276   -0.016439
  41 C     6.0000    0    12.011   -0.279260   -5.011017   -3.172523
  42 C     6.0000    0    12.011    0.732828   -7.416211   -3.769401
  43 C     6.0000    0    12.011    0.444972   -8.436242   -6.203315
  44 C     6.0000    0    12.011   -0.860338   -7.079727   -8.075527
  45 C     6.0000    0    12.011   -1.876090   -4.695488   -7.503405
  46 C     6.0000    0    12.011   -1.585000   -3.664247   -5.073964
  47 C     6.0000    0    12.011   -2.576146   -5.379514    1.752725
  48 C     6.0000    0    12.011   10.373776   -1.033856   -3.895241
  49 C     6.0000    0    12.011   -3.427706   -7.776769    0.940112
  50 C     6.0000    0    12.011   -5.281535   -9.095012    2.307615
  51 C     6.0000    0    12.011   -6.307337   -8.050320    4.523993
  52 C     6.0000    0    12.011   -5.479575   -5.669245    5.354299
  53 C     6.0000    0    12.011   -3.638756   -4.339612    3.973285
  54 C     6.0000    0    12.011    8.919031    0.094316   -1.981535
  55 C     6.0000    0    12.011    6.360115    1.813840    2.989409
  56 C     6.0000    0    12.011    8.285752    3.621600    3.415756
  57 C     6.0000    0    12.011    9.835418    3.463341    5.565296
  58 H     1.0000    0     1.008    2.793835    6.737240    2.541408
  59 H     1.0000    0     1.008    3.382988   11.271134    1.439822
  60 H     1.0000    0     1.008    5.602155   12.474352   -2.569173
  61 H     1.0000    0     1.008    7.270604    9.089144   -5.426464
  62 H     1.0000    0     1.008    6.768678    4.559066   -4.271414
  63 H     1.0000    0     1.008    5.147491   -4.605007   -1.894919
  64 H     1.0000    0     1.008    8.924651   -6.692391   -0.063646
  65 H     1.0000    0     1.008    8.731381   -8.618661    4.262761
  66 H     1.0000    0     1.008    4.687556   -8.440205    6.721166
  67 H     1.0000    0     1.008    0.881574   -6.399440    4.866512
  68 H     1.0000    0     1.008   -2.661789   -8.594816   -0.796176
  69 H     1.0000    0     1.008   -5.926296  -10.942964    1.636046
  70 H     1.0000    0     1.008   -7.752467   -9.079206    5.587918
  71 H     1.0000    0     1.008   -6.285634   -4.817864    7.058652
  72 H     1.0000    0     1.008   -3.065380   -2.447847    4.581700
  73 H     1.0000    0     1.008    4.563575   -1.576691    4.458093
  74 H     1.0000    0     1.008    7.319871   -1.859392    8.250614
  75 H     1.0000    0     1.008   10.696842    1.379587    8.994029
  76 H     1.0000    0     1.008   11.308019    4.884014    5.872494
  77 H     1.0000    0     1.008    8.546884    5.169763    2.071542
  78 H     1.0000    0     1.008    9.825514    0.728397   -0.235577
  79 H     1.0000    0     1.008    3.092089   -0.260149   -4.763470
  80 H     1.0000    0     1.008    5.679175   -2.227889   -8.191978
  81 H     1.0000    0     1.008   10.355595   -2.746617   -7.625880
  82 H     1.0000    0     1.008   12.412999   -1.263724   -3.629682
  83 H     1.0000    0     1.008   -8.614264    5.495996    0.090677
  84 H     1.0000    0     1.008   -9.403026    9.692318   -1.877613
  85 H     1.0000    0     1.008   -5.985689   11.833342   -4.358954
  86 H     1.0000    0     1.008   -1.766416    9.726980   -4.834700
  87 H     1.0000    0     1.008   -0.979507    5.532275   -2.828610
  88 H     1.0000    0     1.008   -2.873338    4.323928    4.953987
  89 H     1.0000    0     1.008   -9.593675    0.763228    1.936160
  90 H     1.0000    0     1.008  -11.834606    1.549746    5.997233
  91 H     1.0000    0     1.008   -5.122382    5.130070    9.016322
  92 H     1.0000    0     1.008   -9.609909    3.719461    9.565712
  93 H     1.0000    0     1.008   -6.860741   -2.916541    0.863970
  94 H     1.0000    0     1.008   -6.531313    2.885476   -4.909021
  95 H     1.0000    0     1.008   -9.337532    0.303254   -7.655205
  96 H     1.0000    0     1.008  -10.980303   -3.868215   -6.131088
  97 H     1.0000    0     1.008   -9.725043   -5.448441   -1.842513
  98 H     1.0000    0     1.008    1.785343   -8.467190   -2.333645
  99 H     1.0000    0     1.008   -2.364219   -1.799764   -4.636492
 100 H     1.0000    0     1.008   -2.907470   -3.627751   -8.944008
 101 H     1.0000    0     1.008   -1.082265   -7.878251   -9.971176
 102 H     1.0000    0     1.008    1.249784  -10.292711   -6.636336
 103 H     1.0000    0     1.008    0.192590   -0.150466    3.710097
 104 H     1.0000    0     1.008    0.077959    1.540012    3.775614
 105 H     1.0000    0     1.008    0.007376    3.943367    0.734678
 106 H     1.0000    0     1.008    0.020286    1.367888   -2.477716
* core charge reduced due to ECP

--------------------------------
INTERNAL COORDINATES (ANGSTROEM)
--------------------------------
 Ru     0   0   0     0.000000000000     0.00000000     0.00000000
 P      1   0   0     2.317682742997     0.00000000     0.00000000
 P      1   2   0     2.328717294565   149.64315660     0.00000000
 P      1   2   3     2.386347195289   103.77832771   152.06515892
 C      2   1   3     1.866946942155   121.07083856   248.65921242
 C      2   1   3     4.700118833633   118.85989875   122.16868880
 C      6   2   1     1.404643164472    59.18282419    38.10828769
 C      7   6   2     1.404493294822   120.31651863   359.78486888
 C      2   1   3     1.875021492176   112.80932606     5.32153582
 C      9   2   1     1.416208234767   118.83920864    59.25861546
 C     10   9   2     1.401958553130   120.77744586   180.29678579
 C     11  10   9     1.407271482720   120.15723246     0.78726209
 C     12  11  10     1.402294757247   119.61385517   359.61185864
 C     13  12  11     1.407899780016   120.31759251   359.56047289
 C      3   1   2     1.876017169732   113.95555002     4.05882473
 C      5   2   1     1.413688944984   118.58839268    29.18628805
 C     15   3   1     1.411123770009   121.39584952    18.55108981
 C     17  15   3     1.406760730413   120.56352038   178.17456653
 C     18  17  15     1.403196456035   120.29131988     0.29941495
 C     19  18  17     1.406267552815   119.66440522   359.81057769
 C     20  19  18     1.402928503582   120.14116300   359.86878140
 C      3   1   2     1.873240326995   117.44114934   249.88187919
 C     22   3   1     1.415831141879   117.41296926    39.85651582
 C     23  22   3     1.402867565612   120.82288023   179.05797728
 C     24  23  22     1.405922966024   120.17534459     0.21423347
 C     25  24  23     1.403587907817   119.59232753   359.44578750
 C     16   5   2     1.405223320512   120.60554167   178.42099001
 C     26  25  24     1.406525768032   120.36680733     0.16769202
 C      3   1   2     1.869148632327   122.71874747   122.25558804
 C     29   3   1     1.415189215014   121.04811107   258.74681810
 C     30  29   3     1.405259586709   120.64984545   176.20912071
 C     31  30  29     1.404040268392   120.32806833     0.49192523
 C     32  31  30     1.404502418439   119.55695524   359.46601332
 C     33  32  31     1.404091766137   120.37657054   359.94201510
 C      4   1   2     1.872570358418   116.25968899    35.49133163
 C     35   4   1     1.414759507531   121.01541828    95.22989711
 C     36  35   4     1.405584460743   120.61208318   184.69407975
 C     27  16   5     1.405504771336   120.10125695     0.32775664
 C     37  36  35     1.404184825039   120.28985653   359.60923715
 C     39  37  36     1.405062959545   119.57550295     0.29983658
 C     40  39  37     1.404253986277   120.39163073     0.16711734
 C      4   1   2     1.865703820217   120.62165020   273.00802702
 C     42   4   1     1.416529884566   122.77565995   151.79653514
 C     43  42   4     1.404789876616   120.57617499   178.38825189
 C     44  43  42     1.404977438251   120.23265411   359.82459161
 C     45  44  43     1.404432002238   119.67931405     0.04576554
 C     46  45  44     1.405100079763   120.27710394     0.17620913
 C      4   1   2     1.878572918568   117.11905980   149.98470809
 C     38  27  16     1.405586046502   119.75280563   359.84403833
 C     48   4   1     1.413242728076   122.39450047   156.04037386
 C     50  48   4     1.404515238391   120.78172116   178.24053245
 C     51  50  48     1.405658823804   120.28460265   359.54975806
 C     52  51  50     1.404476605306   119.56567771     0.45381919
 C     53  52  51     1.406430363396   120.15103584     0.08676537
 C     49  38  27     1.405195136354   120.23831089   359.83327577
 C      8   7   6     1.413599806953   120.52958555     0.26809289
 C     56   8   7     1.415768247420   118.68381200     0.00000000
 C      6   2   1     1.404684343992    60.50628456   218.00101551
 H     10   9   2     1.094639412220   119.35389527   359.53416188
 H     11  10   9     1.094756081963   119.64876602   180.20462583
 H     12  11  10     1.094640163666   120.11337042   179.50743467
 H     13  12  11     1.094967499420   120.20179004   179.95976600
 H     14  13  12     1.092865078565   119.69396995   180.81940303
 H     41  40  39     1.093066818437   119.70446119   179.07327449
 H     40  39  37     1.094334248686   120.34422516   179.49419032
 H     39  37  36     1.094491775131   120.24194486   180.30884529
 H     37  36  35     1.095125094652   119.51810381   180.44083346
 H     36  35   4     1.093795333701   119.67871657     5.68110087
 H     50  48   4     1.093558058686   119.52520807   356.92790936
 H     51  50  48     1.094981082999   119.60268393   179.48111793
 H     52  51  50     1.094635355401   120.21986367   179.98175535
[...]
ITERATION  13 : L=11968.5121912017 DL=  3.66e-02 (AVERGE_DL)=    0.0017291740 
ITERATION  14 : L=11968.5224187928 DL=  1.02e-02 (AVERGE_DL)=    0.0009138808 
ITERATION  15 : L=11968.5250947302 DL=  2.68e-03 (AVERGE_DL)=    0.0004674561 
ITERATION  16 : L=11968.5257765170 DL=  6.82e-04 (AVERGE_DL)=    0.0002359539 
ITERATION  17 : L=11968.5259483704 DL=  1.72e-04 (AVERGE_DL)=    0.0001184628 
ITERATION  18 : L=11968.5259915032 DL=  4.31e-05 (AVERGE_DL)=    0.0000593481 
ITERATION  19 : L=11968.5260023211 DL=  1.08e-05 (AVERGE_DL)=    0.0000297216 
ITERATION  20 : L=11968.5260050304 DL=  2.71e-06 (AVERGE_DL)=    0.0000148742 
ITERATION  21 : L=11968.5260057158 DL=  6.85e-07 (AVERGE_DL)=    0.0000074812 
LOCALIZATION SUM CONVERGED


--------------------------------------------------------------------------------
                    LOCALIZED MOLECULAR ORBITAL COMPOSITIONS
--------------------------------------------------------------------------------

The Mulliken populations for each LMO on each atom are computed
The LMO`s will be ordered according to atom index and type
  (A) Strongly localized MO`s have populations of >=0.950 on one atom
  (B) Two center bond orbitals have populations of >=0.850 on two atoms
  (C) Other MO`s are considered to be `delocalized`

FOUND  -  15 strongly local MO`s
       - 142 two center bond MO`s
       -   0 significantly delocalized MO`s

Rather strongly localized orbitals:
MO  74:   3P  -   1.000447
MO  73:   3P  -   1.000545
MO  72:   3P  -   0.999388
MO  71:   2P  -   1.000512
MO  70:   2P  -   1.000423
MO  69:   2P  -   0.999486
MO  68:   1P  -   1.000427
MO  67:   1P  -   1.000526
MO  66:   1P  -   0.999565
MO  65:   0Ru -   0.957040
MO  64:   0Ru -   0.966943
MO  63:   0Ru -   0.977314
MO  62:   0Ru -   0.976372
MO  61:   0Ru -   0.976539
MO  60:   0Ru -   0.959896
Bond-like localized orbitals:
MO 216: 106H  -   0.557811  and   0Ru -   0.369376
MO 215: 105H  -   0.547835  and   0Ru -   0.389513
MO 214: 104H  -   0.410178  and 103H  -   0.442231
MO 213: 102H  -   0.511469  and  43C  -   0.520682
MO 212: 101H  -   0.510466  and  44C  -   0.521061
MO 211: 100H  -   0.510939  and  45C  -   0.522124
MO 210:  99H  -   0.475005  and  46C  -   0.551842
MO 209:  98H  -   0.495982  and  42C  -   0.536712
MO 208:  97H  -   0.512177  and  32C  -   0.519970
MO 207:  96H  -   0.511320  and  31C  -   0.519958
MO 206:  95H  -   0.511747  and  30C  -   0.519627
MO 205:  94H  -   0.494649  and  29C  -   0.535922
MO 204:  93H  -   0.499249  and  33C  -   0.532863
MO 203:  92H  -   0.509006  and  24C  -   0.521809
MO 202:  91H  -   0.510254  and  23C  -   0.522059
MO 201:  90H  -   0.510799  and  25C  -   0.521009
MO 200:  89H  -   0.494136  and  27C  -   0.535270
MO 199:  88H  -   0.486428  and  22C  -   0.536709
MO 198:  87H  -   0.464840  and  16C  -   0.562635
MO 197:  86H  -   0.510565  and  17C  -   0.523040
MO 196:  85H  -   0.511577  and  18C  -   0.518378
MO 195:  84H  -   0.513226  and  19C  -   0.517166
MO 194:  83H  -   0.505774  and  20C  -   0.524552
MO 193:  82H  -   0.511436  and  48C  -   0.519269
MO 192:  81H  -   0.510245  and  37C  -   0.521271
MO 191:  80H  -   0.506078  and  26C  -   0.527627
MO 190:  79H  -   0.475556  and  15C  -   0.547543
MO 189:  78H  -   0.497724  and  54C  -   0.534447
MO 188:  77H  -   0.497186  and  56C  -   0.534545
MO 187:  76H  -   0.511140  and  57C  -   0.519533
MO 186:  75H  -   0.510593  and   5C  -   0.519354
MO 185:  74H  -   0.512682  and   6C  -   0.520621
MO 184:  73H  -   0.491814  and   7C  -   0.536137
MO 183:  72H  -   0.484413  and  53C  -   0.536489
MO 182:  71H  -   0.506309  and  52C  -   0.526575
MO 181:  70H  -   0.509812  and  51C  -   0.521691
MO 180:  69H  -   0.511349  and  50C  -   0.518740
MO 179:  68H  -   0.500282  and  49C  -   0.530535
MO 178:  67H  -   0.499679  and  35C  -   0.530315
MO 177:  66H  -   0.511660  and  36C  -   0.519153
MO 176:  65H  -   0.510517  and  38C  -   0.520575
MO 175:  64H  -   0.510691  and  39C  -   0.521745
MO 174:  63H  -   0.496659  and  40C  -   0.534522
MO 173:  62H  -   0.496771  and  13C  -   0.532512
MO 172:  61H  -   0.511908  and  12C  -   0.517848
MO 171:  60H  -   0.510643  and  11C  -   0.520271
MO 170:  59H  -   0.509767  and  10C  -   0.522022
MO 169:  58H  -   0.486342  and   9C  -   0.543352
MO 168:  57C  -   0.512308  and  56C  -   0.507571
MO 167:  57C  -   0.472663  and   5C  -   0.456938
MO 166:  57C  -   0.471701  and   5C  -   0.457532
MO 165:  56C  -   0.438251  and  55C  -   0.479912
MO 164:  56C  -   0.443457  and  55C  -   0.487488
MO 163:  55C  -   0.528481  and   7C  -   0.484374
MO 162:  55C  -   0.584613  and   1P  -   0.446889
MO 161:  54C  -   0.449986  and  48C  -   0.474873
MO 160:  54C  -   0.450760  and  48C  -   0.480398
MO 159:  54C  -   0.487853  and   4C  -   0.521742
MO 158:  53C  -   0.513034  and  52C  -   0.506395
MO 157:  53C  -   0.434269  and  47C  -   0.485443
MO 156:  53C  -   0.449431  and  47C  -   0.486707
MO 155:  52C  -   0.469344  and  51C  -   0.462659
MO 154:  52C  -   0.461148  and  51C  -   0.461523
MO 153:  51C  -   0.512564  and  50C  -   0.507786
MO 152:  50C  -   0.476744  and  49C  -   0.455848
MO 151:  50C  -   0.472155  and  49C  -   0.451877
MO 150:  49C  -   0.488721  and  47C  -   0.519568
MO 149:  48C  -   0.506962  and  37C  -   0.513301
MO 148:  47C  -   0.580895  and   3P  -   0.445181
MO 147:  46C  -   0.503159  and  45C  -   0.515715
MO 146:  46C  -   0.440148  and  41C  -   0.488572
MO 145:  46C  -   0.410327  and  41C  -   0.507131
MO 144:  45C  -   0.466720  and  44C  -   0.463811
MO 143:  45C  -   0.468969  and  44C  -   0.456267
MO 142:  44C  -   0.512958  and  43C  -   0.506621
MO 141:  43C  -   0.474211  and  42C  -   0.456650
MO 140:  43C  -   0.476864  and  42C  -   0.449826
MO 139:  42C  -   0.493149  and  41C  -   0.514230
MO 138:  41C  -   0.583185  and   3P  -   0.449422
MO 137:  40C  -   0.455265  and  39C  -   0.466282
MO 136:  40C  -   0.460254  and  39C  -   0.467527
MO 135:  40C  -   0.480443  and  34C  -   0.529855
MO 134:  39C  -   0.502886  and  38C  -   0.516940
MO 133:  38C  -   0.455844  and  36C  -   0.470343
MO 132:  38C  -   0.460285  and  36C  -   0.471373
MO 131:  37C  -   0.459591  and  26C  -   0.463095
MO 130:  37C  -   0.462014  and  26C  -   0.467025
MO 129:  36C  -   0.507324  and  35C  -   0.512197
MO 128:  35C  -   0.451220  and  34C  -   0.477118
MO 127:  35C  -   0.440574  and  34C  -   0.479211
MO 126:  34C  -   0.569377  and   3P  -   0.454040
MO 125:  33C  -   0.513802  and  32C  -   0.505499
MO 124:  33C  -   0.438370  and  28C  -   0.480470
MO 123:  33C  -   0.436331  and  28C  -   0.491636
MO 122:  32C  -   0.467811  and  31C  -   0.461553
MO 121:  32C  -   0.464945  and  31C  -   0.461385
MO 120:  31C  -   0.511772  and  30C  -   0.507816
MO 119:  30C  -   0.470739  and  29C  -   0.458457
MO 118:  30C  -   0.477201  and  29C  -   0.449854
MO 117:  29C  -   0.482437  and  28C  -   0.526329
MO 116:  28C  -   0.575101  and   2P  -   0.454358
MO 115:  27C  -   0.456709  and  25C  -   0.470945
MO 114:  27C  -   0.451660  and  25C  -   0.472643
MO 113:  27C  -   0.489187  and  21C  -   0.519660
MO 112:  26C  -   0.511385  and  15C  -   0.508724
MO 111:  25C  -   0.504913  and  24C  -   0.514960
MO 110:  24C  -   0.461885  and  23C  -   0.467029
MO 109:  24C  -   0.455998  and  23C  -   0.469375
MO 108:  23C  -   0.512019  and  22C  -   0.507070
MO 107:  22C  -   0.426375  and  21C  -   0.488870
MO 106:  22C  -   0.450979  and  21C  -   0.478449
MO 105:  21C  -   0.591943  and   2P  -   0.439449
MO 104:  20C  -   0.458575  and  19C  -   0.470058
MO 103:  20C  -   0.450872  and  19C  -   0.477856
MO 102:  20C  -   0.494699  and  14C  -   0.512549
MO 101:  19C  -   0.506732  and  18C  -   0.513173
MO 100:  18C  -   0.458418  and  17C  -   0.470987
MO  99:  18C  -   0.461788  and  17C  -   0.466913
MO  98:  17C  -   0.515918  and  16C  -   0.503367
MO  97:  16C  -   0.437812  and  14C  -   0.483776
MO  96:  16C  -   0.418178  and  14C  -   0.509082
MO  95:  15C  -   0.446641  and   4C  -   0.483433
MO  94:  15C  -   0.415247  and   4C  -   0.507954
MO  93:  14C  -   0.568789  and   2P  -   0.457619
MO  92:  13C  -   0.505793  and  12C  -   0.514076
MO  91:  13C  -   0.441002  and   8C  -   0.491323
MO  90:  13C  -   0.444515  and   8C  -   0.476066
MO  89:  12C  -   0.470765  and  11C  -   0.461978
MO  88:  12C  -   0.471739  and  11C  -   0.460249
MO  87:  11C  -   0.514730  and  10C  -   0.505104
MO  86:  10C  -   0.470761  and   9C  -   0.456290
MO  85:  10C  -   0.477504  and   9C  -   0.453461
MO  84:   9C  -   0.483780  and   8C  -   0.529227
MO  83:   8C  -   0.572748  and   1P  -   0.455240
MO  82:   7C  -   0.450054  and   6C  -   0.475332
MO  81:   7C  -   0.452740  and   6C  -   0.471203
MO  80:   6C  -   0.501692  and   5C  -   0.517413
MO  79:   4C  -   0.585739  and   1P  -   0.444487
MO  78:   3P  -   0.849373  and   0Ru -   0.136828
MO  77:   2P  -   0.789431  and   0Ru -   0.197833
MO  76:   1P  -   0.778920  and   0Ru -   0.211991
MO  75:   1P  -   0.000921  and   0Ru -   0.919912
Localized MO's were stored in: 1b_opt.loc


-------------------------------------------------------------------------------
                          DFT DISPERSION CORRECTION                            
                                                                               
                                DFTD4 V3.4.0                                   
-------------------------------------------------------------------------------
The WB97X-D3BJ functional is recognized
Active option DFTDOPT                   ...         5   

-------------------------   ----------------
Dispersion correction           -0.407218905
-------------------------   ----------------


-------------------------   --------------------
FINAL SINGLE POINT ENERGY     -3205.724243204150
-------------------------   --------------------

                                *** OPTIMIZATION RUN DONE ***



           ************************************************************
           *        Program running with 32 parallel MPI-processes    *
           *              working on a common directory               *
           ************************************************************

------------------------------------------------------------------------------
                              ORCA PROPERTY CALCULATIONS
------------------------------------------------------------------------------

GBWName                                 ... 1b_opt.gbw
Number of atoms                         ...    107
Number of basis functions               ...   1086
Max core memory                         ...   4096 MB

Electric properties:
Dipole moment                           ... YES
Quadrupole moment                       ...  NO
Static polarizability (Dipole/Dipole)   ...  NO
Static polarizability (Dipole/Quad.)    ...  NO
Static polarizability (Quad./Quad.)     ...  NO
Static polarizability (Velocity)        ...  NO
Static hyperpolarizability              ...  NO

Atomic electric properties:
Dipole moment                           ...  NO
Quadrupole moment                       ...  NO
Static polarizability                   ...  NO

Choice of electric origin               ... Center of mass
Position of electric origin             ...     0.003888     0.051810     0.050274

General magnetic properties:
Magnetizability                         ...  NO

EPR properties:
g-Tensor (aka g-matrix)                 ...  NO
Zero-Field splitting spin-orbit         ...  NO
Zero-field splitting spin-spin          ...  NO
Hyperfine couplings                     ...  NO (   0 nuclei)
Quadrupole couplings                    ...  NO (   0 nuclei)
Contact density                         ...  NO (   0 nuclei)

NMR properties:
Chemical shifts                         ...  NO (   0 nuclei)
Spin-rotation constants                 ...  NO (   0 nuclei)
Spin-spin couplings                     ...  NO (   0 nuclei,    0 pairs)

Choice of magnetic origin               ... GIAO
Position of magnetic origin             ...     0.000000     0.000000     0.000000

Properties with geometric perturbations:
SCF Hessian                             ...  NO
IR spectrum                             ...  NO
VCD spectrum                            ...  NO
X-ray spectroscopy properties:
SCF XES/XAS/RIXS spectra                ...  NO

SCF SOC stabilization energy            ...  NO
Diagonal Born-Oppenheimer correction    ...  NO

-------------
DIPOLE MOMENT
-------------

Method             : SCF
Type of density    : Electron Density
Multiplicity       :   1
Irrep              :   0
Energy             : -3205.3170242996206980 Eh
Basis              : AO
                                X                 Y                 Z
Electronic contribution:      2.201725455      38.855018378      29.643159956
Nuclear contribution   :     -2.224649319     -39.666209821     -29.683413549
                        -----------------------------------------
Total Dipole Moment    :     -0.022923864      -0.811191443      -0.040253593
                        -----------------------------------------
Magnitude (a.u.)       :      0.812513023
Magnitude (Debye)      :      2.065243977



--------------------
Rotational spectrum 
--------------------
 
Rotational constants in cm-1:             0.001786             0.001454             0.001229 
Rotational constants in MHz :            53.554784            43.596668            36.850829 

Dipole components along the rotational axes: 
x,y,z [a.u.] :    -0.023750     0.808930    -0.072427 
x,y,z [Debye]:    -0.060367     2.056137    -0.184095 

 

Dipole moment calculation done in   0.1 sec 

Maximum memory used throughout the entire PROP-calculation: 125.0 MB

--------------------------------
SUGGESTED CITATIONS FOR THIS RUN
--------------------------------

Below you find a list of papers that are relevant to this ORCA run
We neither can nor want to force you to cite these papers, but we appreciate if you do
You receive ORCA, which is the product of decades of hard work by many enthusiastic individuals, for free
The only thing we kindly ask in return is that you cite our papers,
We deeply appreciate it, if you show your appreciation for ORCA by not just citing the generic ORCA reference.

Please note that relegating all ORCA citations to the supporting information does *not* help us.
SI sections are not indexed - citations you put there will not count into any citation statistics
But we need these citations in order to attract the funding resources that allow us to do what we are doing

Therefore, if you are a happy ORCA user, please consider citing a few of the papers listed below in the main body of your paper

In addition to the list printed below, the program has created the file 1b_opt.bibtex that contains the list in bibtex format
You can import this file easily into all common literature databanks and citation aid programs

It goes without saying that in many instances, there are alternative algorithms to achieve similar
results as the ones you have gotten from ORCA. It is, of course, also the case that in some instances
ORCA just re-implements algorithms worked out by others. We are fully aware of that and we are also
fully appreciative of our colleagues work. Hence this citation list should not be read as indicating
that the listed papers, which are focused on our own work, are the only ones worth citing. It simply
meant to make it easier for users to cite ORCA specific papers. It is not a substitute for doing your
own literature research and citing the relevant literature in a scientifically appropriate manner.

List of essential papers. We consider these as the minimum necessary citations

  1. Neese, F.
     Software update: the ORCA program system, version 6.0
     WIRES Comput. Molec. Sci. 2025 15(1), e70019
     doi.org/10.1002/wcms.70019

List of papers to cite with high priority. The work reported in these papers was absolutely
necessary for this run to complete.
Our perspective: the developers of density functionals and basis sets usually get cited in chemistry papers
Good! But without the algorithms to do something with them, the functionals or basis sets would not do anything.
Hence, in our opinion, the algorithm design and method developments papers are equally worthy of getting cited

  1. Neese, F.
     An improvement of the resolution of the identity approximation for the formation of the Coulomb matrix
     J. Comp. Chem. 2003 24(14), 1740-1747
     doi.org/10.1002/jcc.10318
  2. Neese, F.; Wennmohs, F.; Hansen, A.; Becker, U.
     Efficient, approximate and parallel Hartree-Fock and hybrid DFT calculations. A 'chain-of-spheres' algorithm for the Hartree-Fock exchange
     Chem. Phys. 2009 356(1-3), 98-109
     doi.org/10.1016/j.chemphys.2008.10.036
  3. Caldeweyher, E.; Bannwarth, C.; Grimme, S.
     Extension of the D3 dispersion coefficient model
     J. Chem. Phys. 2017 147 , 034112
     doi.org/10.1063/1.4993215
  4. Caldeweyher, E.; Ehlert, S.; Hansen, A.; Neugebauer, H.; Spicher, S.; Bannwarth, C.; Grimme, S.
     A generally applicable atomic-charge dependent London dispersion correction
     J. Chem. Phys. 2019 150 , 154122
     doi.org/10.1063/1.5090222
  5. Helmich-Paris, B.; de Souza, B.; Neese, F.; Izsák, R.
     An improved chain of spheres for exchange algorithm
     J. Chem. Phys. 2021 155(10), 104109
     doi.org/10.1063/5.0058766
  6. Neese, F.
     The SHARK Integral Generation and Digestion System
     J. Comp. Chem. 2022 44(3), 381
     doi.org/10.1002/jcc.26942

List of suggested additional citations. These are papers that are important in the 'surrounding' of 
of this run, or papers that preceded the highly important papers. If you like your results we are grateful for a citation.

  1. Izsak, R.; Neese, F.
     An overlap fitted chain of spheres exchange method
     J. Chem. Phys. 2011 135 , 144105
     doi.org/10.1063/1.3646921
  2. Izsak, R.; Hansen, A.; Neese, F.
     The resolution of identity and chain of spheres approximations for the LPNO-CCSD singles Fock term
     Molec. Phys. 2012 110 , 2413-2417
     doi.org/10.1080/00268976.2012.687466
  3. Neese, F.
     The ORCA program system
     WIRES Comput. Molec. Sci. 2012 2(1), 73-78
     doi.org/10.1002/wcms.81
  4. Izsak, R.; Neese, F.; Klopper, W.
     Robust fitting techniques in the chain of spheres approximation to the Fock exchange: The role of the complementary space
     J. Chem. Phys. 2013 139 , 
     doi.org/10.1063/1.4819264
  5. Neese, F.
     Software update: the ORCA program system, version 4.0
     WIRES Comput. Molec. Sci. 2018 8(1), 1-6
     doi.org/10.1002/wcms.1327
  6. Neese, F.; Wennmohs, F.; Becker, U.; Riplinger, C.
     The ORCA quantum chemistry program package
     J. Chem. Phys. 2020 152(22), 224108
     doi.org/10.1063/5.0004608
  7. Neese, F.
     Software update: The ORCA program system—Version 5.0
     WIRES Comput. Molec. Sci. 2022 12(1), e1606
     doi.org/10.1002/wcms.1606

List of optional additional citations

  1. Neese, F.
     Approximate second-order SCF convergence for spin unrestricted wavefunctions
     Chem. Phys. Lett. 2000 325(1-3), 93-98
     doi.org/10.1016/s0009-2614(00)00662-x

Timings for individual modules:

Sum of individual times          ...     5792.475 sec (=  96.541 min)
Startup calculation              ...      402.486 sec (=   6.708 min)   6.9 %
SCF iterations                   ...     4303.603 sec (=  71.727 min)  74.3 %
Property calculations            ...        1.132 sec (=   0.019 min)   0.0 %
SCF Gradient evaluation          ...     1063.571 sec (=  17.726 min)  18.4 %
Geometry relaxation              ...        2.495 sec (=   0.042 min)   0.0 %
Orbital localization             ...       19.187 sec (=   0.320 min)   0.3 %
                             ****ORCA TERMINATED NORMALLY****
TOTAL RUN TIME: 0 days 1 hours 37 minutes 25 seconds 648 msec
