
                                 *****************
                                 * O   R   C   A *
                                 *****************

                                            #,                                       
                                            ###                                      
                                            ####                                     
                                            #####                                    
                                            ######                                   
                                           ########,                                 
                                     ,,################,,,,,                         
                               ,,#################################,,                 
                          ,,##########################################,,             
                       ,#########################################, ''#####,          
                    ,#############################################,,   '####,        
                  ,##################################################,,,,####,       
                ,###########''''           ''''###############################       
              ,#####''   ,,,,##########,,,,          '''####'''          '####       
            ,##' ,,,,###########################,,,                        '##       
           ' ,,###''''                  '''############,,,                           
         ,,##''                                '''############,,,,        ,,,,,,###''
      ,#''                                            '''#######################'''  
     '                                                          ''''####''''         
             ,#######,   #######,   ,#######,      ##                                
            ,#'     '#,  ##    ##  ,#'     '#,    #''#        ,####,    ,#,          
            ##       ##  ##   ,#'  ##            #'  '#       #'       ,# #          
            ##       ##  #######   ##           ,######,      #####,      #          
            '#,     ,#'  ##    ##  '#,     ,#' ,#      #,     #,   #      #          
             '#######'   ##     ##  '#######'  #'      '#     '####' #    #          



                #########################################################
                #                        -***-                          #
                #          Department of theory and spectroscopy        #
                #                                                       #
                #                      Frank Neese                      #
                #                                                       #
                #     Directorship, Architecture, Infrastructure        #
                #                    SHARK, DRIVERS                     #
                #        Core code/Algorithms in most modules           #
                #                                                       #
                #        Max Planck Institute fuer Kohlenforschung      #
                #                Kaiser Wilhelm Platz 1                 #
                #                 D-45470 Muelheim/Ruhr                 #
                #                      Germany                          #
                #                                                       #
                #                  All rights reserved                  #
                #                        -***-                          #
                #########################################################


                         Program Version 6.1.1  -  RELEASE   -
                                (GIT: $487d211c$)
                          ($2025-11-21 10:33:24 +0100$)


 With contributions from (in alphabetic order):
[Max-Planck-Institut fuer Kohlenforschung]                               
  Daniel Aravena         : Magnetic Suceptibility                        
  Michael Atanasov       : Ab Initio Ligand Field Theory (pilot matlab implementation)
  Alexander A. Auer      : GIAO ZORA, VPT2 properties, NMR spectrum      
  Ute Becker             : All parallelization in ORCA, NUMFREQ, NUMCALC 
  Giovanni Bistoni       : ED, misc. LED, open-shell LED, HFLD           
  Dmytro Bykov           : pre 5.0 version of the SCF Hessian            
  Marcos Casanova-Páez   : Triplet and SCS-CIS(D). UHF-(DLPNO)-IP/EA/STEOM-CCSD. UHF-CVS-IP/STEOM-CCSD   
  Vijay G. Chilkuri      : MRCI spin determinant printing, contributions to CSF-ICE 
  Pauline Colinet        : FMM embedding                                 
  Dipayan Datta          : RHF DLPNO-CCSD density                        
  Achintya Kumar Dutta   : EOM-CC, STEOM-CC                              
  Nicolas Foglia         : Exact transition moments, OPA infrastructure, MCD improvements    
  Dmitry Ganyushin       : Spin-Orbit,Spin-Spin,Magnetic field MRCI      
  Miquel Garcia-Rates    : C-PCM and meta-GGA Hessian, CCSD/C-PCM, Gaussian charge scheme 
  Tiago L. C. Gouveia    : GS-ROHF, GS-ROCIS                             
  Yang Guo               : DLPNO-NEVPT2, F12-NEVPT2, CIM, IAO-localization        
  Andreas Hansen         : Spin unrestricted coupled pair/coupled cluster methods 
  Ingolf Harden          : AUTO-CI MPn and infrastructure                
  Benjamin Helmich-Paris : MC-RPA, TRAH-(SCF,CASSCF), AVAS, COSX integrals, SCF dyn. polar., MC-PDFT, srDFT 
  Lee Huntington         : MR-EOM, pCC                                   
  Robert Izsak           : Overlap fitted RIJCOSX, COSX-SCS-MP3, EOM     
  Riya Kayal             : Wick's Theorem for AUTO-CI, AUTO-CI UHF-CCSDT 
  Emily Kempfer          : AUTO-CI RHF CISDT and CCSDT, approximate NEVPT4
  Christian Kollmar      : KDIIS, OOCD, Brueckner-CCSD(T), CCSD density, CASPT2, CASPT2-K, improved NEVPT2 
  Axel Koslowski         : Symmetry handling                             
  Simone Kossmann        : meta-GGA functionals, TD-DFT gradient, OOMP2, (MP2 Hessian; deprecated post 5.0) 
  Lucas Lang             : DCDCAS, Hyperfine gauge corrections, ICE-SOC+SSC
  Marvin Lechner         : AUTO-CI (C++ implementation), FIC-MRCC        
  Spencer Leger          : CASSCF response                               
  Dagmar Lenk            : GEPOL surface, SMD, ORCA-2-JSON               
  Dimitrios Liakos       : Extrapolation schemes; Compound Job, Property file
  Dimitrios Manganas     : Further ROCIS development; embedding schemes. LFT, Crystal Embedding 
  Dimitrios Pantazis     : SARC Basis sets                               
  Anastasios Papadopoulos: AUTO-CI, single reference methods and gradients 
  Taras Petrenko         : pre 6.0 DFT Hessian and TD-DFT gradient,  ECA, NRVS 
  Petra Pikulova         : Analytic Raman intensities                    
  Peter Pinski           : DLPNO-MP2, DLPNO-MP2 Gradient                 
  Shashank Vittal Rao    : ES-AILFT, MagRelax                            
  Christoph Reimann      : Effective Core Potentials                     
  Marius Retegan         : Local ZFS, SOC                                
  Christoph Riplinger    : Optimizer, TS searches, QM/MM, DLPNO-CCSD(T), (RO)-DLPNO pert. Triples 
  Michael Roemelt        : Original ROCIS implementation, recursive CI coupling coefficients
  Masaaki Saitow         : Open-shell DLPNO-CCSD energy and density      
  Barbara Sandhoefer     : DKH picture change effects                    
  Yorick L. A. Schmerwitz: GMF and freeze-and-release deltaSCF, NEB S-IDPP initial path                    
  Kantharuban Sivalingam : CASSCF convergence/infrastructure, NEVPT2, NEVPT3, NEVPT4(SD), FIC-MRCI and CEPA variants
  Bernardo de Souza      : ESD, SOC TD-DFT                               
  Georgi L. Stoychev     : AutoAux, RI-MP2 NMR, DLPNO-MP2 response, X2C  
  Van Anh Tran           : RI-MP2 g-tensors                              
  Willem Van den Heuvel  : Paramagnetic NMR                              
  Zikuan Wang            : NOTCH, Electric field optimization            
  Frank Wennmohs         : Technical directorship and infrastructure     
  Hang Xu                : AUTO-CI-Response properties                   
                                                                         
[FACCTs GmbH]                                                            
  Markus Bursch, Nicolas Foglia, Miquel Garcia-Rates, Ingolf Harden, Hagen Neugebauer, Anastasios Papadopoulos, 
  Christoph Riplinger, Bernardo de Souza, Georgi L. Stoychev                                                    
                                                                 
  APM, various basis sets, CI-OPT, improved COSX, DLPNO-Multilevel,           
  DOCKER, DRACO, updates on ESD, Fragmentator, GOAT, IRC, LR-CPCM, L-BFGS, MBIS, meta-GGA TD-DFT gradient, ML-optimized integration grids, 
  MM, NACMEs, nearIR, NEB, NEB-TS, NL-DFT gradient (VV10), 2- and 3-layer-ONIOM, interface openCOSMO-RS, QMMM,   
  Crystal-QMMM, RESP, rigid body optimization, SF, symmetry and pop. for TD-DFT, various functionals, SOLVATOR                                   
                                                                         
[Other institutions]                                                     
  V. Asgeirsson          : NEB                                           
  Christoph Bannwarth    : sTDA-DFT, sTD-DFT, PBEh-3c, B97-3c, D3        
  Giovanni Bistoni       : ETS/NOCV, ADLD/ADEX, COVALED                  
  Martin Brehm           : Molecular dynamics                            
  Ronald Cardenas        : ETS/NOCV                                      
  Martina Colucci        : COVALED                                       
  Sebastian Ehlert       : rSCAN, r2SCAN, r2SCAN-3c, D4, dhf basis sets  
  Marvin Friede          : D4 for Fr, Ra, Ac-Lr                          
  Lars Goerigk           : TD-DFT with DH, B97 family of functionals     
  Stefan Grimme          : VdW corrections, initial TS optimization, DFT functionals, gCP, sTDA/sTD-DF 
  Waldemar Hujo          : DFT-NL                                        
  H. Jonsson             : NEB                                           
  Holger Kruse           : gCP                                           
  Marcel Mueller         : wB97X-3c, vDZP basis set                      
  Hagen Neugebauer       : wr2SCAN, Native XTB                           
  Gianluca Regni         : ADLD/ADEX                                     
  Tobias Risthaus        : pre 6.0 range-separated hybrid DFT and stability analysis
  Lukas Wittmann         : regularized MP2, r2SCAN double-hybrids, wr2SCAN        
                                                                         
We gratefully acknowledge several colleagues who have allowed us to      
interface, adapt or use parts of their codes:                            
  Ed Valeev, F. Pavosevic, A. Kumar             : LibInt (2-el integral package), F12 methods 
  Garnet Chan, S. Sharma, J. Yang, R. Olivares  : DMRG                   
  Ulf Ekstrom                                   : XCFun DFT Library      
  Mihaly Kallay                                 : mrcc  (arbitrary order and MRCC methods)
  Frank Weinhold                                : gennbo (NPA and NBO analysis)           
  Simon Mueller                                 : openCOSMO-RS                            
  Christopher J. Cramer and Donald G. Truhlar   : smd solvation model                     
  S Lehtola, MJT Oliveira, MAL Marques          : LibXC Library                           
  Liviu Ungur et al                             : ANISO software                          


 Your calculation uses the libint2 library for the computation of 2-el integrals
 For citations please refer to: http://libint.valeyev.net

 Your ORCA version has been built with support for libXC version: 7.0.0
 For citations please refer to: https://libxc.gitlab.io

 This ORCA versions uses:
   CBLAS   interface :  Fast vector & matrix operations
   LAPACKE interface :  Fast linear algebra routines
   SCALAPACK package :  Parallel linear algebra routines
   Shared memory     :  Shared parallel matrices
   BLAS/LAPACK       :  OpenBLAS 0.3.29  USE64BITINT DYNAMIC_ARCH NO_AFFINITY Cooperlake SINGLE_THREADED
        Core in use  :  Cooperlake
   Copyright (c) 2011-2014, The OpenBLAS Project


  ***********************************
  * Starting time: Thu Jul  9 14:13:25 2026
  * Host name:     c1-42
  * Process ID:    3152340
  * Working dir.:  /cluster/projects/nn14654k/ylvaos/TPhP_bsse/orca/geomopt_wb97x-d4_def2svp
  ***********************************

Your calculation utilizes the atom-pairwise dispersion correction
based on EEQ partial charges (D4)


Warning: RI is on but no J-basis has been assigned. Assigning Def2/J (nothing to worry about!)
================================================================================

----- Orbital basis set information -----
Your calculation utilizes the basis: def2-SVP
   F. Weigend and R. Ahlrichs, Phys. Chem. Chem. Phys. 7, 3297 (2005).

----- AuxJ basis set information -----
Your calculation utilizes the auxiliary basis: def2/J
   H-Rn: F. Weigend, Phys. Chem. Chem. Phys. 8, 1057 (2006).
   Fr-Lr: K. Eichkorn, F. Weigend, O. Treutler, R. Ahlrichs; Theor. Chem. Acc. 97, 119 (1997).

================================================================================
                                        WARNINGS
                       Please study these warnings very carefully!
================================================================================


WARNING: Geometry Optimization
  ===> : Switching off AutoStart
         For restart on a previous wavefunction, please use MOREAD

================================================================================
                                       INPUT FILE
================================================================================
NAME = TPhP_opt.inp
|  1> ! wB97X-D4 def2-SVP TightSCF defgrid3 Opt
|  2> 
|  3> %pal nprocs 32 end
|  4> 
|  5> %loc
|  6>   LocMet NEWBOYS
|  7>   Occ true
|  8> end
|  9> 
| 10> *xyz 0 1
| 11> P -2.29773900 1.27158900 -0.14124300
| 12> C -3.22530300 0.70179900 -1.64936100
| 13> C -4.33139200 1.37833600 -2.21045200
| 14> C -2.74699900 -0.46688100 -2.28889000
| 15> C -4.94847100 0.89146100 -3.37718100
| 16> H -4.71221100 2.29438300 -1.73196300
| 17> C -3.37293000 -0.95956000 -3.44550000
| 18> H -1.87062500 -0.99311100 -1.87421600
| 19> C -4.47484200 -0.27886400 -3.99520000
| 20> H -5.80887300 1.43169200 -3.80439000
| 21> H -2.99059000 -1.87366200 -3.92773400
| 22> H -4.95991800 -0.65793200 -4.90891700
| 23> C -3.11043600 0.29062600 1.21396600
| 24> C -2.45795100 0.27466200 2.46989300
| 25> C -4.29662600 -0.46028800 1.05552000
| 26> C -2.99006000 -0.45428600 3.54599800
| 27> H -1.51936900 0.83911200 2.60155200
| 28> C -4.82084200 -1.20115000 2.13032500
| 29> H -4.81360400 -0.46687200 0.08298900
| 30> C -4.17275300 -1.19761700 3.37775000
| 31> H -2.47174200 -0.45188800 4.51844400
| 32> H -5.74564800 -1.78410700 1.99054700
| 33> H -4.58529600 -1.77893900 4.21784000
| 34> C -2.99641600 2.97362200 0.13103400
| 35> C -4.05708100 3.26992600 1.01599300
| 36> C -2.38072700 4.03639600 -0.57255900
| 37> C -4.49613900 4.59573900 1.18472900
| 38> H -4.54269100 2.45742700 1.57915200
| 39> C -2.82951600 5.35765400 -0.41372900
| 40> H -1.53699400 3.82251300 -1.25025500
| 41> C -3.88780200 5.64147900 0.46897600
| 42> H -5.32309500 4.81131000 1.88065500
| 43> H -2.34208900 6.17235500 -0.97318500
| 44> H -4.23357800 6.67894100 0.60307100
| 45> **                         ****END OF INPUT****
================================================================================

                       *****************************
                       * Geometry Optimization Run *
                       *****************************

Geometry optimization settings:
Update method            Update   .... BFGS
Choice of coordinates    CoordSys .... (2022) Redundant Internals
Initial Hessian          InHess   .... Almloef's Model
Max. no of cycles        MaxIter  .... 102

Convergence Tolerances:
Energy Change            TolE     ....  5.0000e-06 Eh
Max. Gradient            TolMAXG  ....  3.0000e-04 Eh/bohr
RMS Gradient             TolRMSG  ....  1.0000e-04 Eh/bohr
Max. Displacement        TolMAXD  ....  4.0000e-03 bohr
RMS Displacement         TolRMSD  ....  2.0000e-03 bohr
Strict Convergence                .... False

------------------------------------------------------------------------------
                        ORCA OPTIMIZATION COORDINATE SETUP
------------------------------------------------------------------------------

The optimization will be done in redundant internal coordinates (2022)
Making redundant internal coordinates   ...  (2022 redundants) done
Evaluating the initial hessian          ...  (Almloef) done
Evaluating the coordinates              ...  done
Calculating the B-matrix                .... done
Calculating the G-matrix                .... done
The number of degrees of freedom        ....  177

    -----------------------------------------------------------------
                    Redundant Internal Coordinates


    -----------------------------------------------------------------
         Definition                    Initial Value    Approx d2E/dq
    -----------------------------------------------------------------
      1. B(C   1,P   0)                  1.8600         0.373628   
      2. B(C   2,C   1)                  1.4128         0.574630   
      3. B(C   3,C   1)                  1.4155         0.568966   
      4. B(C   4,C   2)                  1.4068         0.587399   
      5. B(H   5,C   2)                  1.1014         0.345311   
      6. B(C   6,C   3)                  1.4044         0.592658   
      7. B(H   7,C   3)                  1.1031         0.343138   
      8. B(C   8,C   6)                  1.4070         0.586910   
      9. B(C   8,C   4)                  1.4057         0.589826   
     10. B(H   9,C   4)                  1.1021         0.344430   
     11. B(H  10,C   6)                  1.1020         0.344621   
     12. B(H  11,C   8)                  1.1018         0.344877   
     13. B(C  12,P   0)                  1.8599         0.373665   
     14. B(C  13,C  12)                  1.4154         0.569144   
     15. B(C  14,C  12)                  1.4128         0.574581   
     16. B(C  15,C  13)                  1.4045         0.592474   
     17. B(H  16,C  13)                  1.1031         0.343155   
     18. B(C  17,C  14)                  1.4067         0.587556   
     19. B(H  18,C  14)                  1.1014         0.345305   
     20. B(C  19,C  17)                  1.4057         0.589697   
     21. B(C  19,C  15)                  1.4070         0.586999   
     22. B(H  20,C  15)                  1.1020         0.344624   
     23. B(H  21,C  17)                  1.1021         0.344433   
     24. B(H  22,C  19)                  1.1018         0.344872   
     25. B(C  23,P   0)                  1.8599         0.373722   
     26. B(C  24,C  23)                  1.4128         0.574630   
     27. B(C  25,C  23)                  1.4155         0.568951   
     28. B(C  26,C  24)                  1.4068         0.587450   
     29. B(H  27,C  24)                  1.1014         0.345309   
     30. B(C  28,C  25)                  1.4044         0.592587   
     31. B(H  29,C  25)                  1.1031         0.343139   
     32. B(C  30,C  28)                  1.4070         0.586936   
     33. B(C  30,C  26)                  1.4057         0.589814   
     34. B(H  31,C  26)                  1.1021         0.344435   
     35. B(H  32,C  28)                  1.1020         0.344622   
     36. B(H  33,C  30)                  1.1018         0.344877   
     37. A(C   1,P   0,C  23)          102.2223         0.411990   
     38. A(C   1,P   0,C  12)          102.1998         0.411979   
     39. A(C  12,P   0,C  23)          102.2304         0.411998   
     40. A(C   2,C   1,C   3)          118.7174         0.421651   
     41. A(P   0,C   1,C   3)          116.7924         0.416408   
     42. A(P   0,C   1,C   2)          124.4555         0.417143   
     43. A(C   1,C   2,C   4)          120.4686         0.424060   
     44. A(C   1,C   2,H   5)          119.7644         0.345958   
     45. A(C   4,C   2,H   5)          119.7669         0.347239   
     46. A(C   1,C   3,C   6)          120.7400         0.423985   
     47. A(C   6,C   3,H   7)          119.7567         0.347391   
     48. A(C   1,C   3,H   7)          119.5029         0.345016   
     49. A(C   8,C   4,H   9)          120.0481         0.347331   
     50. A(C   2,C   4,H   9)          119.6219         0.347090   
     51. A(C   2,C   4,C   8)          120.3298         0.426045   
     52. A(C   3,C   6,C   8)          120.0719         0.426347   
     53. A(C   3,C   6,H  10)          119.7871         0.347644   
     54. A(C   8,C   6,H  10)          120.1367         0.347074   
     55. A(C   4,C   8,C   6)          119.6625         0.425982   
     56. A(C   6,C   8,H  11)          120.1559         0.347117   
     57. A(C   4,C   8,H  11)          120.1805         0.347407   
     58. A(C  13,C  12,C  14)          118.7224         0.421668   
     59. A(P   0,C  12,C  14)          124.4350         0.417144   
     60. A(P   0,C  12,C  13)          116.8116         0.416439   
     61. A(C  15,C  13,H  16)          119.7680         0.347376   
     62. A(C  12,C  13,H  16)          119.4961         0.345037   
     63. A(C  12,C  13,C  15)          120.7356         0.423985   
     64. A(C  17,C  14,H  18)          119.7738         0.347254   
     65. A(C  12,C  14,H  18)          119.7548         0.345952   
     66. A(C  12,C  14,C  17)          120.4714         0.424074   
     67. A(C  13,C  15,C  19)          120.0700         0.426335   
     68. A(C  19,C  15,H  20)          120.1360         0.347083   
     69. A(C  13,C  15,H  20)          119.7898         0.347626   
     70. A(C  14,C  17,C  19)          120.3229         0.426049   
     71. A(C  19,C  17,H  21)          120.0487         0.347319   
     72. A(C  14,C  17,H  21)          119.6282         0.347106   
     73. A(C  15,C  19,C  17)          119.6682         0.425977   
     74. A(C  17,C  19,H  22)          120.1769         0.347393   
     75. A(C  15,C  19,H  22)          120.1538         0.347125   
     76. A(C  24,C  23,C  25)          118.7146         0.421649   
     77. A(P   0,C  23,C  25)          116.8032         0.416425   
     78. A(P   0,C  23,C  24)          124.4479         0.417162   
     79. A(C  26,C  24,H  27)          119.7553         0.347244   
     80. A(C  23,C  24,H  27)          119.7734         0.345958   
     81. A(C  23,C  24,C  26)          120.4713         0.424067   
     82. A(C  28,C  25,H  29)          119.7555         0.347384   
     83. A(C  23,C  25,H  29)          119.5036         0.345015   
     84. A(C  23,C  25,C  28)          120.7407         0.423974   
     85. A(C  30,C  26,H  31)          120.0487         0.347331   
     86. A(C  24,C  26,H  31)          119.6212         0.347096   
     87. A(C  24,C  26,C  30)          120.3299         0.426050   
     88. A(C  30,C  28,H  32)          120.1367         0.347077   
     89. A(C  25,C  28,H  32)          119.7873         0.347637   
     90. A(C  25,C  28,C  30)          120.0717         0.426342   
     91. A(C  28,C  30,H  33)          120.1563         0.347120   
     92. A(C  26,C  30,H  33)          120.1807         0.347406   
     93. A(C  26,C  30,C  28)          119.6619         0.425984   
     94. D(C   3,C   1,P   0,C  23)    167.9583         0.010000   
     95. D(C   2,C   1,P   0,C  12)     95.7174         0.010000   
     96. D(C   3,C   1,P   0,C  12)    -86.4608         0.010000   
     97. D(C   2,C   1,P   0,C  23)     -9.8634         0.010000   
     98. D(C   4,C   2,C   1,P   0)    178.2153         0.022667   
     99. D(C   4,C   2,C   1,C   3)      0.4324         0.022667   
    100. D(H   5,C   2,C   1,P   0)     -1.6821         0.022667   
    101. D(H   5,C   2,C   1,C   3)   -179.4650         0.022667   
    102. D(H   7,C   3,C   1,P   0)      0.7368         0.022203   
    103. D(C   6,C   3,C   1,C   2)     -1.1139         0.022203   
    104. D(H   7,C   3,C   1,C   2)    178.6888         0.022203   
    105. D(C   6,C   3,C   1,P   0)   -179.0660         0.022203   
    106. D(H   9,C   4,C   2,C   1)   -179.8483         0.023734   
    107. D(C   8,C   4,C   2,H   5)   -179.7983         0.023734   
    108. D(C   8,C   4,C   2,C   1)      0.3042         0.023734   
    109. D(H   9,C   4,C   2,H   5)      0.0492         0.023734   
    110. D(H  10,C   6,C   3,H   7)      0.5086         0.024183   
    111. D(H  10,C   6,C   3,C   1)   -179.6891         0.024183   
    112. D(C   8,C   6,C   3,H   7)   -178.7438         0.024183   
    113. D(C   8,C   6,C   3,C   1)      1.0585         0.024183   
    114. D(H  11,C   8,C   6,H  10)      0.0682         0.023693   
    115. D(C   4,C   8,C   6,H  10)   -179.5545         0.023693   
    116. D(C   4,C   8,C   6,C   3)     -0.3048         0.023693   
    117. D(H  11,C   8,C   4,H   9)      0.1583         0.023940   
    118. D(H  11,C   8,C   4,C   2)   -179.9948         0.023940   
    119. D(H  11,C   8,C   6,C   3)    179.3179         0.023693   
    120. D(C   6,C   8,C   4,H   9)    179.7809         0.023940   
    121. D(C   6,C   8,C   4,C   2)     -0.3722         0.023940   
    122. D(C  14,C  12,P   0,C   1)    -10.7623         0.010000   
    123. D(C  13,C  12,P   0,C  23)    -87.2427         0.010000   
    124. D(C  13,C  12,P   0,C   1)    167.1827         0.010000   
    125. D(C  14,C  12,P   0,C  23)     94.8123         0.010000   
    126. D(H  16,C  13,C  12,C  14)    178.7068         0.022218   
    127. D(H  16,C  13,C  12,P   0)      0.6395         0.022218   
    128. D(C  15,C  13,C  12,C  14)     -1.0880         0.022218   
    129. D(C  15,C  13,C  12,P   0)   -179.1554         0.022218   
    130. D(H  18,C  14,C  12,C  13)   -179.4813         0.022663   
    131. D(H  18,C  14,C  12,P   0)     -1.5728         0.022663   
    132. D(C  17,C  14,C  12,C  13)      0.4192         0.022663   
    133. D(C  17,C  14,C  12,P   0)    178.3277         0.022663   
    134. D(H  20,C  15,C  13,H  16)      0.5020         0.024167   
    135. D(H  20,C  15,C  13,C  12)   -179.7037         0.024167   
    136. D(C  19,C  15,C  13,H  16)   -178.7562         0.024167   
    137. D(C  19,C  15,C  13,C  12)      1.0381         0.024167   
    138. D(H  21,C  17,C  14,H  18)      0.0577         0.023747   
    139. D(H  21,C  17,C  14,C  12)   -179.8428         0.023747   
    140. D(C  19,C  17,C  14,H  18)   -179.8001         0.023747   
    141. D(C  19,C  17,C  14,C  12)      0.2994         0.023747   
    142. D(H  22,C  19,C  17,H  21)      0.1581         0.023929   
    143. D(C  15,C  19,C  17,H  21)    179.7812         0.023929   
    144. D(C  15,C  19,C  17,C  14)     -0.3615         0.023929   
    145. D(H  22,C  19,C  15,H  20)      0.0647         0.023700   
    146. D(H  22,C  19,C  15,C  13)    179.3203         0.023700   
    147. D(H  22,C  19,C  17,C  14)   -179.9847         0.023929   
    148. D(C  17,C  19,C  15,H  20)   -179.5586         0.023700   
    149. D(C  17,C  19,C  15,C  13)     -0.3030         0.023700   
    150. D(C  25,C  23,P   0,C  12)    167.8325         0.010000   
    151. D(C  25,C  23,P   0,C   1)    -86.6105         0.010000   
    152. D(C  24,C  23,P   0,C  12)    -10.0038         0.010000   
    153. D(C  24,C  23,P   0,C   1)     95.5532         0.010000   
    154. D(H  27,C  24,C  23,P   0)     -1.6572         0.022667   
    155. D(C  26,C  24,C  23,C  25)      0.4430         0.022667   
    156. D(C  26,C  24,C  23,P   0)    178.2409         0.022667   
    157. D(H  27,C  24,C  23,C  25)   -179.4551         0.022667   
    158. D(H  29,C  25,C  23,C  24)    178.6798         0.022202   
    159. D(H  29,C  25,C  23,P   0)      0.7142         0.022202   
    160. D(C  28,C  25,C  23,C  24)     -1.1236         0.022202   
    161. D(C  28,C  25,C  23,P   0)   -179.0892         0.022202   
    162. D(H  31,C  26,C  24,H  27)      0.0507         0.023738   
    163. D(H  31,C  26,C  24,C  23)   -179.8474         0.023738   
    164. D(C  30,C  26,C  24,H  27)   -179.8012         0.023738   
    165. D(C  30,C  26,C  24,C  23)      0.3006         0.023738   
    166. D(H  32,C  28,C  25,H  29)      0.5113         0.024177   
    167. D(H  32,C  28,C  25,C  23)   -179.6858         0.024177   
    168. D(C  30,C  28,C  25,H  29)   -178.7426         0.024177   
    169. D(C  30,C  28,C  25,C  23)      1.0603         0.024177   
    170. D(H  33,C  30,C  28,H  32)      0.0686         0.023695   
    171. D(H  33,C  30,C  28,C  25)    179.3198         0.023695   
    172. D(C  26,C  30,C  28,H  32)   -179.5507         0.023695   
    173. D(C  26,C  30,C  28,C  25)     -0.2994         0.023695   
    174. D(H  33,C  30,C  26,H  31)      0.1529         0.023939   
    175. D(H  33,C  30,C  26,C  24)   -179.9958         0.023939   
    176. D(C  28,C  30,C  26,H  31)    179.7720         0.023939   
    177. D(C  28,C  30,C  26,C  24)     -0.3767         0.023939   
    -----------------------------------------------------------------

Number of atoms                         .... 34
Number of degrees of freedom            .... 177


         *************************************************************
         *                GEOMETRY OPTIMIZATION CYCLE   1            *
         *************************************************************
---------------------------------
CARTESIAN COORDINATES (ANGSTROEM)
---------------------------------
  P     -2.297739    1.271589   -0.141243
  C     -3.225303    0.701799   -1.649361
  C     -4.331392    1.378336   -2.210452
  C     -2.746999   -0.466881   -2.288890
  C     -4.948471    0.891461   -3.377181
  H     -4.712211    2.294383   -1.731963
  C     -3.372930   -0.959560   -3.445500
  H     -1.870625   -0.993111   -1.874216
  C     -4.474842   -0.278864   -3.995200
  H     -5.808873    1.431692   -3.804390
  H     -2.990590   -1.873662   -3.927734
  H     -4.959918   -0.657932   -4.908917
  C     -3.110436    0.290626    1.213966
  C     -2.457951    0.274662    2.469893
  C     -4.296626   -0.460288    1.055520
  C     -2.990060   -0.454286    3.545998
  H     -1.519369    0.839112    2.601552
  C     -4.820842   -1.201150    2.130325
  H     -4.813604   -0.466872    0.082989
  C     -4.172753   -1.197617    3.377750
  H     -2.471742   -0.451888    4.518444
  H     -5.745648   -1.784107    1.990547
  H     -4.585296   -1.778939    4.217840
  C     -2.996416    2.973622    0.131034
  C     -4.057081    3.269926    1.015993
  C     -2.380727    4.036396   -0.572559
  C     -4.496139    4.595739    1.184729
  H     -4.542691    2.457427    1.579152
  C     -2.829516    5.357654   -0.413729
  H     -1.536994    3.822513   -1.250255
  C     -3.887802    5.641479    0.468976
  H     -5.323095    4.811310    1.880655
  H     -2.342089    6.172355   -0.973185
  H     -4.233578    6.678941    0.603071

----------------------------
CARTESIAN COORDINATES (A.U.)
----------------------------
  NO LB      ZA    FRAG     MASS         X           Y           Z
   0 P    15.0000    0    30.974   -4.342097    2.402955   -0.266911
   1 C     6.0000    0    12.011   -6.094939    1.326208   -3.116841
   2 C     6.0000    0    12.011   -8.185145    2.604678   -4.177149
   3 C     6.0000    0    12.011   -5.191076   -0.882277   -4.325375
   4 C     6.0000    0    12.011   -9.351255    1.684617   -6.381947
   5 H     1.0000    0     1.008   -8.904788    4.335756   -3.272936
   6 C     6.0000    0    12.011   -6.373914   -1.813306   -6.511051
   7 H     1.0000    0     1.008   -3.534969   -1.876708   -3.541755
   8 C     6.0000    0    12.011   -8.456226   -0.526977   -7.549834
   9 H     1.0000    0     1.008  -10.977179    2.705506   -7.189255
  10 H     1.0000    0     1.008   -5.651396   -3.540708   -7.422342
  11 H     1.0000    0     1.008   -9.372887   -1.243311   -9.276509
  12 C     6.0000    0    12.011   -5.877872    0.549204    2.294063
  13 C     6.0000    0    12.011   -4.644854    0.519036    4.667421
  14 C     6.0000    0    12.011   -8.119446   -0.869818    1.994644
  15 C     6.0000    0    12.011   -5.650395   -0.858476    6.700965
  16 H     1.0000    0     1.008   -2.871191    1.585692    4.916221
  17 C     6.0000    0    12.011   -9.110071   -2.269845    4.025731
  18 H     1.0000    0     1.008   -9.096393   -0.882260    0.156826
  19 C     6.0000    0    12.011   -7.885360   -2.263168    6.383022
  20 H     1.0000    0     1.008   -4.670915   -0.853945    8.538622
  21 H     1.0000    0     1.008  -10.857701   -3.371474    3.761589
  22 H     1.0000    0     1.008   -8.664954   -3.361708    7.970562
  23 C     6.0000    0    12.011   -5.662406    5.619331    0.247618
  24 C     6.0000    0    12.011   -7.666772    6.179265    1.919949
  25 C     6.0000    0    12.011   -4.498922    7.627683   -1.081980
  26 C     6.0000    0    12.011   -8.496471    8.684688    2.238813
  27 H     1.0000    0     1.008   -8.584442    4.643864    2.984165
  28 C     6.0000    0    12.011   -5.347010   10.124499   -0.781835
  29 H     1.0000    0     1.008   -2.904498    7.223503   -2.362640
  30 C     6.0000    0    12.011   -7.346881   10.660850    0.886236
  31 H     1.0000    0     1.008  -10.059192    9.092058    3.553923
  32 H     1.0000    0     1.008   -4.425907   11.664061   -1.839053
  33 H     1.0000    0     1.008   -8.000303   12.621369    1.139639

--------------------------------
INTERNAL COORDINATES (ANGSTROEM)
--------------------------------
 P      0   0   0     0.000000000000     0.00000000     0.00000000
 C      1   0   0     1.859961160917     0.00000000     0.00000000
 C      2   1   0     1.412783882471   124.45548321     0.00000000
 C      2   1   3     1.415480484025   116.79236976   177.82177000
 C      3   2   1     1.406801449142   120.46857950   178.21534055
 H      3   2   1     1.101415879716   119.76440291   358.31786067
 C      4   2   1     1.404374916432   120.74002807   180.93401381
 H      4   2   1     1.103133685032   119.50294513     0.73679002
 C      5   3   2     1.405678668696   120.32978192     0.30417613
 H      5   3   2     1.102111003777   119.62190431   180.15169678
 H      7   4   2     1.101960059512   119.78709581   180.31086116
 H      9   5   3     1.101757700445   120.18054560   180.00518318
 C      1   2   3     1.859934475958   102.19975352    95.71743222
 C     13   1   2     1.415395405479   116.81162379   167.18271589
 C     13   1   2     1.412807023769   124.43501011   349.23773654
 C     14  13   1     1.404459734421   120.73561467   180.84463832
 H     14  13   1     1.103120150077   119.49611172     0.63950679
 C     15  13   1     1.406728369560   120.47139699   178.32774628
 H     15  13   1     1.101420059515   119.75476174   358.42722962
 C     18  15  13     1.405738583320   120.32292371     0.29937291
 H     16  14  13     1.101957586500   119.78976357   180.29629860
 H     18  15  13     1.102108384311   119.62820322   180.15721011
 H     20  18  15     1.101761409123   120.17686136   180.01530181
 C      1   2   3     1.859892644253   102.22233144   350.13657476
 C     24   1   2     1.412784036689   124.44792719    95.55323314
 C     24   1   2     1.415487417622   116.80320969   273.38951847
 C     25  24   1     1.406777834638   120.47131934   178.24093783
 H     25  24   1     1.101417158202   119.77335100   358.34282324
 C     26  24   1     1.404407789064   120.74067636   180.91081805
 H     26  24   1     1.103133347059   119.50357115     0.71419284
 C     27  25  24     1.405684320955   120.32990762     0.30062345
 H     27  25  24     1.102107108884   119.62120953   180.15255644
 H     29  26  24     1.101959080758   119.78733305   180.31415236
 H     31  27  25     1.101757646965   120.18071778   180.00416964

---------------------------
INTERNAL COORDINATES (A.U.)
---------------------------
 P      0   0   0     0.000000000000     0.00000000     0.00000000
 C      1   0   0     3.514817213864     0.00000000     0.00000000
 C      2   1   0     2.669774624289   124.45548321     0.00000000
 C      2   1   3     2.674870462718   116.79236976   177.82177000
 C      3   2   1     2.658469463681   120.46857950   178.21534055
 H      3   2   1     2.081374372216   119.76440291   358.31786067
 C      4   2   1     2.653883981404   120.74002807   180.93401381
 H      4   2   1     2.084620553814   119.50294513     0.73679002
 C      5   3   2     2.656347716130   120.32978192     0.30417613
 H      5   3   2     2.082687966319   119.62190431   180.15169678
 H      7   4   2     2.082402722998   119.78709581   180.31086116
 H      9   5   3     2.082020319779   120.18054560   180.00518318
 C      1   2   3     3.514766786600   102.19975352    95.71743222
 C     13   1   2     2.674709687565   116.81162379   167.18271589
 C     13   1   2     2.669818355004   124.43501011   349.23773654
 C     14  13   1     2.654044264176   120.73561467   180.84463832
 H     14  13   1     2.084594976455   119.49611172     0.63950679
 C     15  13   1     2.658331363286   120.47139699   178.32774628
 H     15  13   1     2.081382270890   119.75476174   358.42722962
 C     18  15  13     2.656460938362   120.32292371     0.29937291
 H     16  14  13     2.082398049681   119.78976357   180.29629860
 H     18  15  13     2.082683016247   119.62820322   180.15721011
 H     20  18  15     2.082027328166   120.17686136   180.01530181
 C      1   2   3     3.514687736133   102.22233144   350.13657476
 C     24   1   2     2.669774915717   124.44792719    95.55323314
 C     24   1   2     2.674883565317   116.80320969   273.38951847
 C     25  24   1     2.658424838737   120.47131934   178.24093783
 H     25  24   1     2.081376788204   119.77335100   358.34282324
 C     26  24   1     2.653946101678   120.74067636   180.91081805
 H     26  24   1     2.084619915138   119.50357115     0.71419284
 C     27  25  24     2.656358397352   120.32990762     0.30062345
 H     27  25  24     2.082680606039   119.62120953   180.15255644
 H     29  26  24     2.082400873421   119.78733305   180.31415236
 H     31  27  25     2.082020218717   120.18071778   180.00416964

---------------------
BASIS SET INFORMATION
---------------------
There are 3 groups of distinct atoms

 Group   1 Type P   : 10s7p1d contracted to 4s3p1d pattern {5311/511/1}
 Group   2 Type C   : 7s4p1d contracted to 3s2p1d pattern {511/31/1}
 Group   3 Type H   : 4s1p contracted to 2s1p pattern {31/1}

Atom   0P    basis set group =>   1
Atom   1C    basis set group =>   2
Atom   2C    basis set group =>   2
Atom   3C    basis set group =>   2
Atom   4C    basis set group =>   2
Atom   5H    basis set group =>   3
Atom   6C    basis set group =>   2
Atom   7H    basis set group =>   3
Atom   8C    basis set group =>   2
Atom   9H    basis set group =>   3
Atom  10H    basis set group =>   3
Atom  11H    basis set group =>   3
Atom  12C    basis set group =>   2
Atom  13C    basis set group =>   2
Atom  14C    basis set group =>   2
Atom  15C    basis set group =>   2
Atom  16H    basis set group =>   3
Atom  17C    basis set group =>   2
Atom  18H    basis set group =>   3
Atom  19C    basis set group =>   2
Atom  20H    basis set group =>   3
Atom  21H    basis set group =>   3
Atom  22H    basis set group =>   3
Atom  23C    basis set group =>   2
Atom  24C    basis set group =>   2
Atom  25C    basis set group =>   2
Atom  26C    basis set group =>   2
Atom  27H    basis set group =>   3
Atom  28C    basis set group =>   2
Atom  29H    basis set group =>   3
Atom  30C    basis set group =>   2
Atom  31H    basis set group =>   3
Atom  32H    basis set group =>   3
Atom  33H    basis set group =>   3
---------------------------------
AUXILIARY/J BASIS SET INFORMATION
---------------------------------
There are 3 groups of distinct atoms

 Group   1 Type P   : 14s5p5d2f1g contracted to 8s4p3d1f1g pattern {71111111/2111/311/2/1}
 Group   2 Type C   : 12s5p4d2f1g contracted to 6s4p3d1f1g pattern {711111/2111/211/2/1}
 Group   3 Type H   : 5s2p1d contracted to 3s1p1d pattern {311/2/1}

Atom   0P    basis set group =>   1
Atom   1C    basis set group =>   2
Atom   2C    basis set group =>   2
Atom   3C    basis set group =>   2
Atom   4C    basis set group =>   2
Atom   5H    basis set group =>   3
Atom   6C    basis set group =>   2
Atom   7H    basis set group =>   3
Atom   8C    basis set group =>   2
Atom   9H    basis set group =>   3
Atom  10H    basis set group =>   3
Atom  11H    basis set group =>   3
Atom  12C    basis set group =>   2
Atom  13C    basis set group =>   2
Atom  14C    basis set group =>   2
Atom  15C    basis set group =>   2
Atom  16H    basis set group =>   3
Atom  17C    basis set group =>   2
Atom  18H    basis set group =>   3
Atom  19C    basis set group =>   2
Atom  20H    basis set group =>   3
Atom  21H    basis set group =>   3
Atom  22H    basis set group =>   3
Atom  23C    basis set group =>   2
Atom  24C    basis set group =>   2
Atom  25C    basis set group =>   2
Atom  26C    basis set group =>   2
Atom  27H    basis set group =>   3
Atom  28C    basis set group =>   2
Atom  29H    basis set group =>   3
Atom  30C    basis set group =>   2
Atom  31H    basis set group =>   3
Atom  32H    basis set group =>   3
Atom  33H    basis set group =>   3


           ************************************************************
           *        Program running with 32 parallel MPI-processes    *
           *              working on a common directory               *
           ************************************************************
------------------------------------------------------------------------------
                             ORCA STARTUP CALCULATIONS
                           -- RI-GTO INTEGRALS CHOSEN --
------------------------------------------------------------------------------
------------------------------------------------------------------------------
                   ___                                                        
                  /   \      - P O W E R E D   B Y -                         
                 /     \                                                     
                 |  |  |   _    _      __       _____    __    __             
                 |  |  |  | |  | |    /  \     |  _  \  |  |  /  |          
                  \  \/   | |  | |   /    \    | | | |  |  | /  /          
                 / \  \   | |__| |  /  /\  \   | |_| |  |  |/  /          
                |  |  |   |  __  | /  /__\  \  |    /   |      \           
                |  |  |   | |  | | |   __   |  |    \   |  |\   \          
                \     /   | |  | | |  |  |  |  | |\  \  |  | \   \       
                 \___/    |_|  |_| |__|  |__|  |_| \__\ |__|  \__/        
                                                                              
                      - O R C A' S   B I G   F R I E N D -                    
                                      &                                       
                       - I N T E G R A L  F E E D E R -                       
                                                                              
 v1 FN, 2020, v2 2021, v3 2022-2024                                           
------------------------------------------------------------------------------


----------------------
SHARK INTEGRAL PACKAGE
----------------------

Number of atoms                             ...     34
Number of basis functions                   ...    345
Number of shells                            ...    161
Maximum angular momentum                    ...      2
Integral batch strategy                     ... SHARK/LIBINT Hybrid
RI-J (if used) integral strategy            ... SPLIT-RIJ (Revised 2003 algorithm where possible)
Printlevel                                  ...      1
Contraction scheme used                     ... SEGMENTED contraction
Prescreening option                         ... SCHWARTZ
   Thresh                                   ... 2.500e-11
   Tcut                                     ... 2.500e-12
   Tpresel                                  ... 2.500e-12 
Coulomb Range Separation                    ... NOT USED
Exchange Range Separation                   ... Long Range
   Mu parameter                             ... 3.000e-01
   Scaling (regular/separated)              ... 1.670e-01 8.330e-01
Robust (split-)RI terms used:
  metric    (central integrals)             ... YES
  density   (r.h.s.  integrals)             ... YES
  potential (l.h.s.  integrals)             ... YES
Multipole approximations                    ... NOT USED
Finite Nucleus Model                        ... NOT USED
CABS basis                                  ... NOT available
Auxiliary Coulomb fitting basis             ... AVAILABLE
   # of basis functions in Aux-J            ...   1098
   # of shells in Aux-J                     ...    362
   Maximum angular momentum in Aux-J        ...      4
Auxiliary J/K fitting basis                 ... NOT available
Auxiliary Correlation fitting basis         ... NOT available
Auxiliary 'external' fitting basis          ... NOT available

Checking pre-screening integrals            ... done (  0.0 sec) Dimension = 161
   => SHARK Basis and OBASIS are compatible. Storing Pre-screening
Shell pair information
Shell pair cut-off parameter TPreSel        ...   2.5e-12
Total number of shell pairs                 ...     13041
Shell pairs after pre-screening             ...     10239
Total number of primitive shell pairs       ...     48197
Primitive shell pairs kept                  ...     24432
          la=0 lb=0:   3141 shell pairs
          la=1 lb=0:   3815 shell pairs
          la=1 lb=1:   1191 shell pairs
          la=2 lb=0:   1218 shell pairs
          la=2 lb=1:    756 shell pairs
          la=2 lb=2:    118 shell pairs

Checking whether 4 symmetric matrices of dimension 345 fit in memory
:Max Core in MB      =   4096.00
 MB in use           =     16.18
 MB left             =   4079.82
 MB needed           =      1.82
 Data fit in memory  = YES
Calculating RI/J V-Matrix + Cholesky decomp.... done (  0.1 sec)
Calculating Nuclear repulsion               ... done (  0.0 sec) ENN=   1393.842336547333 Eh

Diagonalization of the overlap matrix:
Smallest eigenvalue                        ... 2.961e-04
Time for diagonalization                   ...    0.008 sec
Threshold for overlap eigenvalues          ... 1.000e-07
Number of eigenvalues below threshold      ... 0
Time for construction of square roots      ...    0.005 sec
Total time needed                          ...    0.016 sec

-------------------
DFT GRID GENERATION
-------------------

General Integration Accuracy     IntAcc      ... 4.959
Radial Grid Type                 RadialGrid  ... OptM3 with GC (2021)
Angular Grid (max. ang.)         AngularGrid ... 6 (Lebedev-590)
Angular grid pruning method      GridPruning ... 4 (adaptive)
Weight generation scheme         WeightScheme... mBecke (2022)
Basis function cutoff            BFCut       ... 1.0000e-11
Integration weight cutoff        WCut        ... 1.0000e-14
Partially contracted basis set               ... off
Rotationally invariant grid construction     ... off
Angular grids for H and He will be reduced by one unit

Total number of grid points                  ...   400329
Total number of batches                      ...     6269
Average number of points per batch           ...       63
Average number of grid points per atom       ...    11774

--------------------
COSX GRID GENERATION
--------------------

GRIDX 1
-------
General Integration Accuracy     IntAcc      ... 4.020
Radial Grid Type                 RadialGrid  ... OptM3 with GC (2021)
Angular Grid (max. ang.)         AngularGrid ... 2 (Lebedev-110)
Angular grid pruning method      GridPruning ... 4 (adaptive)
Weight generation scheme         WeightScheme... mBecke (2022)
Basis function cutoff            BFCut       ... 1.0000e-11
Integration weight cutoff        WCut        ... 1.0000e-14
Partially contracted basis set               ... on
Rotationally invariant grid construction     ... off
Angular grids for H and He will be reduced by one unit

Total number of grid points                  ...    44843
Total number of batches                      ...      368
Average number of points per batch           ...      121
Average number of grid points per atom       ...     1319
UseSFitting                                  ... on

GRIDX 2
-------
General Integration Accuracy     IntAcc      ... 4.338
Radial Grid Type                 RadialGrid  ... OptM3 with GC (2021)
Angular Grid (max. ang.)         AngularGrid ... 3 (Lebedev-194)
Angular grid pruning method      GridPruning ... 4 (adaptive)
Weight generation scheme         WeightScheme... mBecke (2022)
Basis function cutoff            BFCut       ... 1.0000e-11
Integration weight cutoff        WCut        ... 1.0000e-14
Partially contracted basis set               ... on
Rotationally invariant grid construction     ... off
Angular grids for H and He will be reduced by one unit

Total number of grid points                  ...    98468
Total number of batches                      ...      784
Average number of points per batch           ...      125
Average number of grid points per atom       ...     2896
UseSFitting                                  ... on

GRIDX 3
-------
General Integration Accuracy     IntAcc      ... 4.871
Radial Grid Type                 RadialGrid  ... OptM3 with GC (2021)
Angular Grid (max. ang.)         AngularGrid ... 4 (Lebedev-302)
Angular grid pruning method      GridPruning ... 4 (adaptive)
Weight generation scheme         WeightScheme... mBecke (2022)
Basis function cutoff            BFCut       ... 1.0000e-11
Integration weight cutoff        WCut        ... 1.0000e-14
Partially contracted basis set               ... on
Rotationally invariant grid construction     ... off
Angular grids for H and He will be reduced by one unit

Total number of grid points                  ...   184389
Total number of batches                      ...     1456
Average number of points per batch           ...      126
Average number of grid points per atom       ...     5423
UseSFitting                                  ... on
Grids setup in   3.8 sec
Initializing property integral containers    ... done (  0.0 sec)

SHARK setup successfully completed in   4.0 seconds

Maximum memory used throughout the entire STARTUP-calculation: 79.0 MB


           ************************************************************
           *        Program running with 32 parallel MPI-processes    *
           *              working on a common directory               *
           ************************************************************
-------------------------------------------------------------------------------
                                 ORCA GUESS
                   Start orbitals & Density for SCF / CASSCF
-------------------------------------------------------------------------------

------------
SCF SETTINGS
------------
Hamiltonian:
 Density Functional     Method          .... DFT(GTOs)
 Exchange Functional    Exchange        .... WB97X-V
 Correlation Functional Correlation     .... WB97X-V
 Gradients option       PostSCFGGA      .... off
 Hybrid DFT is turned on
   Fraction HF Exchange ScalHFX         ....  0.167000
   Scaling of DF-GGA-X  ScalDFX         ....  0.000000
   Scaling of DF-GGA-C  ScalDFC         ....  1.000000
   Scaling of DF-LDA-C  ScalLDAC        ....  1.000000
   Perturbative correction              ....  0.000000
 Long-range corrected/Screened/Range-Separated Hybrid DFT is turned on
   Amount of maximum screened exact exchange              ....  0.833000
   Range separation parameter mu (erf(mu*r12)/r12)        ....  0.300000
 RI-approximation to the Coulomb term is turned on
   Number of AuxJ basis functions       .... 1098
   RIJ-COSX (HFX calculated with COS-X)).... on


General Settings:
 Integral files         IntName         .... TPhP_opt
 Hartree-Fock type      HFTyp           .... RHF
 Total Charge           Charge          ....    0
 Multiplicity           Mult            ....    1
 Number of Electrons    NEL             ....  138
 Basis Dimension        Dim             ....  345
 Nuclear Repulsion      ENuc            ....   1393.8423365473 Eh

Convergence Acceleration:
 AO-DIIS                CNVDIIS         .... on
   Start iteration      DIISMaxIt       ....    12
   Startup error        DIISStart       ....  0.200000
   # of expansion vecs  DIISMaxEq       ....     5
   Bias factor          DIISBfac        ....   1.050
   Max. coefficient     DIISMaxC        ....  10.000
 MO-DIIS                CNVKDIIS        .... off
 Trust-Rad. Augm. Hess. CNVTRAH         .... auto
   Auto Start mean grad. ratio tolernc. ....  1.125000
   Auto Start start iteration           ....    50
   Auto Start num. interpolation iter.  ....    10
   Max. Number of Micro iterations      ....    24
   Max. Number of Macro iterations      .... Maxiter - #DIIS iter
   Number of Davidson start vectors     ....     2
   Converg. threshold    (grad. norm)   ....   1.000e-05
   Grad. Scal. Fac. for Micro threshold ....   0.100
   Minimum threshold for Micro iter.    ....   1.000e-02
   NR start threshold (gradient norm)   ....   1.000e-04
   Initial trust radius                 ....   0.400
   Minimum AH scaling param. (alpha)    ....   1.000
   Maximum AH scaling param. (alpha)    .... 1000.000
   Quad. conv. algorithm                .... NR
   White noise on init. David. guess    .... on
   Maximum white noise                  ....   0.010
   Pseudo random numbers                .... off
   Inactive MOs                         .... canonical
   Orbital update algorithm             .... Taylor
   Preconditioner                       .... Diag
   Full preconditioner red. dimension   ....   250
 SOSCF                 CNVSOSCF           .... on
   Start iteration     SOSCFMaxIt         ....   150
   Startup grad/error  SOSCFStart         ....  0.003300
   Hessian update      SOSCFHessUp        .... L-BFGS
   Autom. constraints  SOSCFAutoConstrain .... off
 Level Shifting         CNVShift        .... on
   Level shift para.    LevelShift      ....    0.2500
   Turn off err/grad.   ShiftErr        ....    0.0010
 Zerner damping         CNVZerner       .... off
 Static damping         CNVDamp         .... on
   Fraction old density DampFac         ....    0.7000
   Max. Damping (<1)    DampMax         ....    0.9800
   Min. Damping (>=0)   DampMin         ....    0.0000
   Turn off err/grad.   DampErr         ....    0.1000

SCF Procedure:
 Maximum # iterations   MaxIter         ....   125
 SCF integral mode      SCFMode         .... Direct
   Integral package                     .... SHARK and LIBINT hybrid scheme
 Reset frequency        DirectResetFreq ....    20
 Integral Threshold     Thresh          ....  2.500e-11 Eh
 Primitive CutOff       TCut            ....  2.500e-12 Eh

Convergence Tolerance:
 Convergence Check Mode ConvCheckMode   .... Total+1el-Energy
 Convergence forced     ConvForced      .... 0
 Energy Change          TolE            ....  1.000e-08 Eh
 1-El. energy change                    ....  1.000e-05 Eh
 Orbital Gradient       TolG            ....  1.000e-05
 Orbital Rotation angle TolX            ....  1.000e-05
 DIIS Error             TolErr          ....  5.000e-07

------------------------------
INITIAL GUESS: MODEL POTENTIAL
------------------------------
Loading Hartree-Fock densities                     ... done
Calculating cut-offs                               ... done
Initializing the effective Hamiltonian             ... done
Setting up the integral package (SHARK)            ... done
Starting the Coulomb interaction                   ... done (   0.1 sec)
Making the grid                                    ... done (   0.1 sec)
Mapping shells                                     ... done
Starting the XC term evaluation                    ... done (   0.0 sec)
  promolecular density results
     # of electrons  =    137.997555276
     EX              =    -81.309069662
     EC              =     -5.785307636
     EX+EC           =    -87.094377298
Transforming the Hamiltonian                       ... done (   0.0 sec)
Diagonalizing the Hamiltonian                      ... done (   0.0 sec)
Back transforming the eigenvectors                 ... done (   0.0 sec)
Now organizing SCF variables                       ... done
                      ------------------
                      INITIAL GUESS DONE (   0.4 sec)
                      ------------------
             **** ENERGY FILE WAS UPDATED (TPhP_opt.en.tmp) ****
Finished Guess after   0.7 sec
Maximum memory used throughout the entire GUESS-calculation: 19.9 MB


           ************************************************************
           *        Program running with 32 parallel MPI-processes    *
           *              working on a common directory               *
           ************************************************************

-------------------------------------------------------------------------------------------
                                      ORCA LEAN-SCF
                              memory conserving SCF solver
-------------------------------------------------------------------------------------------

----------------------------------------D-I-I-S--------------------------------------------
Iteration    Energy (Eh)           Delta-E    RMSDP     MaxDP     DIISErr   Damp  Time(sec)
-------------------------------------------------------------------------------------------
               ***  Starting incremental Fock matrix formation  ***
    1    -1035.8975662936350091     0.00e+00  9.81e-03  8.76e-02  1.36e-01  0.700   2.3
    2    -1035.9247699381262464    -2.72e-02  8.27e-03  7.70e-02  8.89e-02  0.700   0.9
                               ***Turning on AO-DIIS***
    3    -1035.9415153364961952    -1.67e-02  6.25e-03  5.32e-02  5.66e-02  0.700   0.9
    4    -1035.9525731912931406    -1.11e-02  1.59e-02  1.29e-01  3.91e-02  0.000   0.8
                              *** Initializing SOSCF ***
---------------------------------------S-O-S-C-F--------------------------------------
Iteration    Energy (Eh)           Delta-E    RMSDP     MaxDP     MaxGrad    Time(sec)
--------------------------------------------------------------------------------------
    5    -1035.9787663479842195    -2.62e-02  1.25e-03  9.10e-03  2.76e-03     0.9
               *** Restarting incremental Fock matrix formation ***
    6    -1035.9789833341715166    -2.17e-04  5.30e-04  3.33e-03  1.47e-03     1.9
    7    -1035.9790301024459040    -4.68e-05  4.01e-04  1.42e-03  8.13e-04     1.4
    8    -1035.9790369979918978    -6.90e-06  1.54e-04  1.68e-03  3.72e-04     1.4
    9    -1035.9790407880886960    -3.79e-06  3.80e-05  5.11e-04  4.01e-05     1.3
   10    -1035.9790409044062471    -1.16e-07  1.07e-05  1.59e-04  1.94e-05     1.1
   11    -1035.9790409393103801    -3.49e-08  5.47e-06  7.88e-05  4.09e-06     0.9
   12    -1035.9790409320580693     7.25e-09  2.34e-06  2.22e-05  2.98e-06     0.8
                 **** Energy Check signals convergence ****

               *****************************************************
               *                     SUCCESS                       *
               *           SCF CONVERGED AFTER  12 CYCLES          *
               *****************************************************

Recomputing exchange energy using gridx3       ... done (    2.777 sec)
Old exchange energy                            :    -38.123210073 Eh
New exchange energy                            :    -38.123199959 Eh
Exchange energy change after final integration :      0.000010114 Eh
Total energy after final integration           :  -1035.979030831 Eh
             **** ENERGY FILE WAS UPDATED (TPhP_opt.en.tmp) ****

----------------
TOTAL SCF ENERGY
----------------

Total Energy       :      -1035.97903083146389 Eh          -28190.42260 eV

Components:
Nuclear Repulsion  :       1393.84233654733316 Eh           37928.37822 eV
Electronic Energy  :      -2429.82137749252161 Eh          -66118.80110 eV
One Electron Energy:      -4177.58187962202828 Eh         -113677.78221 eV
Two Electron Energy:       1747.76050212950690 Eh           47558.98111 eV

Virial components:
Potential Energy   :      -2061.56167969307444 Eh          -56097.94527 eV
Kinetic Energy     :       1025.58264886161055 Eh           27907.52267 eV
Virial Ratio       :          2.01013704939470

DFT components:
N(Alpha)           :       69.000002612929 electrons
N(Beta)            :       69.000002612929 electrons
N(Total)           :      138.000005225857 electrons
E(X)               :      -82.478850111965 Eh       
E(C)               :       -5.829176067190 Eh       
E(XC)              :      -88.308026179155 Eh       

---------------
SCF CONVERGENCE
---------------

  Last Energy change         ...   -7.2523e-09  Tolerance :   1.0000e-08
  Last MAX-Density change    ...    2.2224e-05  Tolerance :   1.0000e-07
  Last RMS-Density change    ...    2.3437e-06  Tolerance :   5.0000e-09
  Last DIIS Error            ...    2.7566e-03  Tolerance :   5.0000e-07
  Last Orbital Gradient      ...    2.9766e-06  Tolerance :   1.0000e-05
  Last Orbital Rotation      ...    5.5155e-06  Tolerance :   1.0000e-05


----------------
ORBITAL ENERGIES
----------------

  NO   OCC          E(Eh)            E(eV) 
   0   2.0000     -77.069885     -2097.1782 
   1   2.0000     -10.302083      -280.3339 
   2   2.0000     -10.302073      -280.3337 
   3   2.0000     -10.302005      -280.3318 
   4   2.0000     -10.299570      -280.2656 
   5   2.0000     -10.299527      -280.2644 
   6   2.0000     -10.299479      -280.2631 
   7   2.0000     -10.299115      -280.2532 
   8   2.0000     -10.299031      -280.2509 
   9   2.0000     -10.298991      -280.2498 
  10   2.0000     -10.298330      -280.2318 
  11   2.0000     -10.298256      -280.2298 
  12   2.0000     -10.298235      -280.2292 
  13   2.0000     -10.297875      -280.2194 
  14   2.0000     -10.297836      -280.2184 
  15   2.0000     -10.297802      -280.2174 
  16   2.0000     -10.297622      -280.2125 
  17   2.0000     -10.297555      -280.2107 
  18   2.0000     -10.297540      -280.2103 
  19   2.0000      -6.662822      -181.3046 
  20   2.0000      -4.820607      -131.1754 
  21   2.0000      -4.820604      -131.1753 
  22   2.0000      -4.817019      -131.0778 
  23   2.0000      -0.990195       -26.9446 
  24   2.0000      -0.981863       -26.7178 
  25   2.0000      -0.981812       -26.7165 
  26   2.0000      -0.899831       -24.4857 
  27   2.0000      -0.872689       -23.7471 
  28   2.0000      -0.872666       -23.7465 
  29   2.0000      -0.871324       -23.7099 
  30   2.0000      -0.866440       -23.5770 
  31   2.0000      -0.866428       -23.5767 
  32   2.0000      -0.772715       -21.0266 
  33   2.0000      -0.725744       -19.7485 
  34   2.0000      -0.725675       -19.7466 
  35   2.0000      -0.724026       -19.7018 
  36   2.0000      -0.713024       -19.4024 
  37   2.0000      -0.713014       -19.4021 
  38   2.0000      -0.675657       -18.3856 
  39   2.0000      -0.633602       -17.2412 
  40   2.0000      -0.633569       -17.2403 
  41   2.0000      -0.608926       -16.5697 
  42   2.0000      -0.568860       -15.4795 
  43   2.0000      -0.568807       -15.4780 
  44   2.0000      -0.566572       -15.4172 
  45   2.0000      -0.559723       -15.2308 
  46   2.0000      -0.559716       -15.2306 
  47   2.0000      -0.552152       -15.0248 
  48   2.0000      -0.532223       -14.4825 
  49   2.0000      -0.531414       -14.4605 
  50   2.0000      -0.531379       -14.4595 
  51   2.0000      -0.517343       -14.0776 
  52   2.0000      -0.517237       -14.0747 
  53   2.0000      -0.486514       -13.2387 
  54   2.0000      -0.483269       -13.1504 
  55   2.0000      -0.483169       -13.1477 
  56   2.0000      -0.472259       -12.8508 
  57   2.0000      -0.449966       -12.2442 
  58   2.0000      -0.449929       -12.2432 
  59   2.0000      -0.449381       -12.2283 
  60   2.0000      -0.424609       -11.5542 
  61   2.0000      -0.424556       -11.5527 
  62   2.0000      -0.376824       -10.2539 
  63   2.0000      -0.354688        -9.6515 
  64   2.0000      -0.354387        -9.6433 
  65   2.0000      -0.354236        -9.6392 
  66   2.0000      -0.346381        -9.4255 
  67   2.0000      -0.346362        -9.4250 
  68   2.0000      -0.305362        -8.3093 
  69   0.0000       0.048531         1.3206 
  70   0.0000       0.048671         1.3244 
  71   0.0000       0.055180         1.5015 
  72   0.0000       0.069256         1.8846 
  73   0.0000       0.074402         2.0246 
  74   0.0000       0.074512         2.0276 
  75   0.0000       0.139718         3.8019 
  76   0.0000       0.139915         3.8073 
  77   0.0000       0.147205         4.0057 
  78   0.0000       0.169336         4.6079 
  79   0.0000       0.169488         4.6120 
*Only the first 10 virtual orbitals were printed.

                    ********************************
                    * MULLIKEN POPULATION ANALYSIS *
                    ********************************

-----------------------
MULLIKEN ATOMIC CHARGES
-----------------------
   0 P :    0.433236
   1 C :   -0.235767
   2 C :    0.004532
   3 C :    0.020899
   4 C :   -0.005341
   5 H :    0.028092
   6 C :   -0.011051
   7 H :    0.016585
   8 C :   -0.006583
   9 H :    0.013446
  10 H :    0.015449
  11 H :    0.015431
  12 C :   -0.236430
  13 C :    0.020927
  14 C :    0.005353
  15 C :   -0.011000
  16 H :    0.016600
  17 C :   -0.005418
  18 H :    0.027817
  19 C :   -0.006430
  20 H :    0.015473
  21 H :    0.013484
  22 H :    0.015464
  23 C :   -0.236224
  24 C :    0.004885
  25 C :    0.020628
  26 C :   -0.005246
  27 H :    0.027856
  28 C :   -0.011046
  29 H :    0.016627
  30 C :   -0.006541
  31 H :    0.013431
  32 H :    0.015441
  33 H :    0.015421
Sum of atomic charges:   -0.0000000

--------------------------------
MULLIKEN REDUCED ORBITAL CHARGES
--------------------------------
  0 P s       :     5.629266  s :     5.629266
      pz      :     2.716263  p :     8.769059
      px      :     3.335697
      py      :     2.717099
      dz2     :     0.032664  d :     0.168439
      dxz     :     0.040562
      dyz     :     0.039021
      dx2y2   :     0.022374
      dxy     :     0.033818

  1 C s       :     3.081762  s :     3.081762
      pz      :     1.054275  p :     3.118015
      px      :     1.018336
      py      :     1.045404
      dz2     :     0.006304  d :     0.035991
      dxz     :     0.007285
      dyz     :     0.006924
      dx2y2   :     0.008309
      dxy     :     0.007169

  2 C s       :     3.206469  s :     3.206469
      pz      :     0.900635  p :     2.754889
      px      :     0.941436
      py      :     0.912817
      dz2     :     0.007435  d :     0.034110
      dxz     :     0.007199
      dyz     :     0.006972
      dx2y2   :     0.006287
      dxy     :     0.006216

  3 C s       :     3.188458  s :     3.188458
      pz      :     0.908293  p :     2.756521
      px      :     0.907489
      py      :     0.940740
      dz2     :     0.007609  d :     0.034122
      dxz     :     0.006425
      dyz     :     0.007663
      dx2y2   :     0.005737
      dxy     :     0.006689

  4 C s       :     3.153772  s :     3.153772
      pz      :     0.956945  p :     2.817366
      px      :     0.918515
      py      :     0.941905
      dz2     :     0.007523  d :     0.034203
      dxz     :     0.006370
      dyz     :     0.007789
      dx2y2   :     0.005851
      dxy     :     0.006669

  5 H s       :     0.948232  s :     0.948232
      pz      :     0.006105  p :     0.023676
      px      :     0.004864
      py      :     0.012707

  6 C s       :     3.154518  s :     3.154518
      pz      :     0.952020  p :     2.822330
      px      :     0.958065
      py      :     0.912244
      dz2     :     0.007284  d :     0.034203
      dxz     :     0.007211
      dyz     :     0.006999
      dx2y2   :     0.006423
      dxy     :     0.006286

  7 H s       :     0.960436  s :     0.960436
      pz      :     0.005236  p :     0.022979
      px      :     0.011600
      py      :     0.006142

  8 C s       :     3.154971  s :     3.154971
      pz      :     0.910075  p :     2.817353
      px      :     0.949032
      py      :     0.958247
      dz2     :     0.005942  d :     0.034258
      dxz     :     0.006334
      dyz     :     0.006884
      dx2y2   :     0.007802
      dxy     :     0.007295

  9 H s       :     0.963718  s :     0.963718
      pz      :     0.005270  p :     0.022836
      px      :     0.011189
      py      :     0.006377

 10 H s       :     0.961679  s :     0.961679
      pz      :     0.005806  p :     0.022871
      px      :     0.004972
      py      :     0.012092

 11 H s       :     0.961767  s :     0.961767
      pz      :     0.012112  p :     0.022802
      px      :     0.005886
      py      :     0.004803

 12 C s       :     3.082176  s :     3.082176
      pz      :     1.056934  p :     3.118262
      px      :     1.019625
      py      :     1.041703
      dz2     :     0.007908  d :     0.035991
      dxz     :     0.009781
      dyz     :     0.006619
      dx2y2   :     0.005949
      dxy     :     0.005734

 13 C s       :     3.188799  s :     3.188799
      pz      :     0.922798  p :     2.756148
      px      :     0.903026
      py      :     0.930324
      dz2     :     0.009973  d :     0.034127
      dxz     :     0.008643
      dyz     :     0.007446
      dx2y2   :     0.003490
      dxy     :     0.004574

 14 C s       :     3.206352  s :     3.206352
      pz      :     0.859577  p :     2.754181
      px      :     0.941040
      py      :     0.953564
      dz2     :     0.007848  d :     0.034114
      dxz     :     0.008842
      dyz     :     0.005485
      dx2y2   :     0.006378
      dxy     :     0.005562

 15 C s       :     3.154517  s :     3.154517
      pz      :     0.898149  p :     2.822290
      px      :     0.947637
      py      :     0.976503
      dz2     :     0.007920  d :     0.034194
      dxz     :     0.008938
      dyz     :     0.005434
      dx2y2   :     0.006327
      dxy     :     0.005575

 16 H s       :     0.960418  s :     0.960418
      pz      :     0.003162  p :     0.022981
      px      :     0.012673
      py      :     0.007146

 17 C s       :     3.153835  s :     3.153835
      pz      :     0.954010  p :     2.817384
      px      :     0.907057
      py      :     0.956316
      dz2     :     0.010105  d :     0.034199
      dxz     :     0.008538
      dyz     :     0.007442
      dx2y2   :     0.003499
      dxy     :     0.004615

 18 H s       :     0.948511  s :     0.948511
      pz      :     0.013926  p :     0.023672
      px      :     0.006023
      py      :     0.003723

 19 C s       :     3.154944  s :     3.154944
      pz      :     0.917115  p :     2.817226
      px      :     0.951132
      py      :     0.948979
      dz2     :     0.007795  d :     0.034260
      dxz     :     0.008948
      dyz     :     0.006771
      dx2y2   :     0.005391
      dxy     :     0.005356

 20 H s       :     0.961655  s :     0.961655
      pz      :     0.012958  p :     0.022872
      px      :     0.006131
      py      :     0.003783

 21 H s       :     0.963680  s :     0.963680
      pz      :     0.003223  p :     0.022836
      px      :     0.012268
      py      :     0.007346

 22 H s       :     0.961734  s :     0.961734
      pz      :     0.010423  p :     0.022801
      px      :     0.005078
      py      :     0.007300

 23 C s       :     3.081996  s :     3.081996
      pz      :     1.039119  p :     3.118236
      px      :     1.015914
      py      :     1.063203
      dz2     :     0.006614  d :     0.035991
      dxz     :     0.005287
      dyz     :     0.006466
      dx2y2   :     0.008460
      dxy     :     0.009164

 24 C s       :     3.206453  s :     3.206453
      pz      :     0.958494  p :     2.754552
      px      :     0.944319
      py      :     0.851740
      dz2     :     0.004879  d :     0.034110
      dxz     :     0.004653
      dyz     :     0.007887
      dx2y2   :     0.008116
      dxy     :     0.008575

 25 C s       :     3.188622  s :     3.188622
      pz      :     0.940041  p :     2.756627
      px      :     0.916444
      py      :     0.900142
      dz2     :     0.004174  d :     0.034123
      dxz     :     0.004336
      dyz     :     0.008128
      dx2y2   :     0.008765
      dxy     :     0.008720

 26 C s       :     3.153711  s :     3.153711
      pz      :     0.940843  p :     2.817333
      px      :     0.922561
      py      :     0.953929
      dz2     :     0.004319  d :     0.034202
      dxz     :     0.004365
      dyz     :     0.008343
      dx2y2   :     0.008627
      dxy     :     0.008548

 27 H s       :     0.948466  s :     0.948466
      pz      :     0.007059  p :     0.023678
      px      :     0.005880
      py      :     0.010739

 28 C s       :     3.154533  s :     3.154533
      pz      :     0.953801  p :     2.822312
      px      :     0.953876
      py      :     0.914635
      dz2     :     0.004928  d :     0.034201
      dxz     :     0.004683
      dyz     :     0.007828
      dx2y2   :     0.008114
      dxy     :     0.008648

 29 H s       :     0.960394  s :     0.960394
      pz      :     0.008445  p :     0.022978
      px      :     0.011053
      py      :     0.003481

 30 C s       :     3.154933  s :     3.154933
      pz      :     0.969767  p :     2.817349
      px      :     0.957733
      py      :     0.889848
      dz2     :     0.006731  d :     0.034259
      dxz     :     0.005360
      dyz     :     0.006312
      dx2y2   :     0.008231
      dxy     :     0.007626

 31 H s       :     0.963732  s :     0.963732
      pz      :     0.008749  p :     0.022837
      px      :     0.010654
      py      :     0.003433

 32 H s       :     0.961688  s :     0.961688
      pz      :     0.006952  p :     0.022872
      px      :     0.005994
      py      :     0.009926

 33 H s       :     0.961777  s :     0.961777
      pz      :     0.003821  p :     0.022802
      px      :     0.004734
      py      :     0.014247



                     *******************************
                     * LOEWDIN POPULATION ANALYSIS *
                     *******************************

----------------------
LOEWDIN ATOMIC CHARGES
----------------------
   0 P :    0.511375
   1 C :   -0.181440
   2 C :   -0.031011
   3 C :   -0.029101
   4 C :   -0.029557
   5 H :    0.033046
   6 C :   -0.029588
   7 H :    0.029481
   8 C :   -0.025434
   9 H :    0.030944
  10 H :    0.031297
  11 H :    0.030782
  12 C :   -0.181634
  13 C :   -0.029059
  14 C :   -0.030653
  15 C :   -0.029651
  16 H :    0.029482
  17 C :   -0.029611
  18 H :    0.033047
  19 C :   -0.025246
  20 H :    0.031305
  21 H :    0.030961
  22 H :    0.030802
  23 C :   -0.181527
  24 C :   -0.030820
  25 C :   -0.029171
  26 C :   -0.029537
  27 H :    0.033031
  28 C :   -0.029637
  29 H :    0.029487
  30 C :   -0.025390
  31 H :    0.030947
  32 H :    0.031297
  33 H :    0.030784

-------------------------------
LOEWDIN REDUCED ORBITAL CHARGES
-------------------------------
  0 P s       :     5.264619  s :     5.264619
      pz      :     2.783798  p :     8.989964
      px      :     3.421493
      py      :     2.784673
      dz2     :     0.046692  d :     0.234043
      dxz     :     0.054581
      dyz     :     0.055078
      dx2y2   :     0.032792
      dxy     :     0.044899

  1 C s       :     2.917682  s :     2.917682
      pz      :     1.061567  p :     3.176303
      px      :     1.056982
      py      :     1.057753
      dz2     :     0.013952  d :     0.087455
      dxz     :     0.018085
      dyz     :     0.017087
      dx2y2   :     0.019353
      dxy     :     0.018978

  2 C s       :     2.869831  s :     2.869831
      pz      :     1.030106  p :     3.072771
      px      :     1.018381
      py      :     1.024284
      dz2     :     0.018203  d :     0.088409
      dxz     :     0.020263
      dyz     :     0.018104
      dx2y2   :     0.015621
      dxy     :     0.016217

  3 C s       :     2.869865  s :     2.869865
      pz      :     1.028488  p :     3.070669
      px      :     1.013667
      py      :     1.028514
      dz2     :     0.018615  d :     0.088568
      dxz     :     0.016672
      dyz     :     0.021606
      dx2y2   :     0.014478
      dxy     :     0.017197

  4 C s       :     2.866386  s :     2.866386
      pz      :     1.032207  p :     3.075574
      px      :     1.012447
      py      :     1.030920
      dz2     :     0.018403  d :     0.087597
      dxz     :     0.016471
      dyz     :     0.021314
      dx2y2   :     0.014303
      dxy     :     0.017106

  5 H s       :     0.899247  s :     0.899247
      pz      :     0.018259  p :     0.067707
      px      :     0.014980
      py      :     0.034469

  6 C s       :     2.866164  s :     2.866164
      pz      :     1.030911  p :     3.075867
      px      :     1.026579
      py      :     1.018377
      dz2     :     0.017673  d :     0.087556
      dxz     :     0.019776
      dyz     :     0.018220
      dx2y2   :     0.015490
      dxy     :     0.016397

  7 H s       :     0.904653  s :     0.904653
      pz      :     0.015931  p :     0.065867
      px      :     0.031564
      py      :     0.018372

  8 C s       :     2.867278  s :     2.867278
      pz      :     1.015674  p :     3.070759
      px      :     1.021762
      py      :     1.033323
      dz2     :     0.014730  d :     0.087398
      dxz     :     0.016268
      dyz     :     0.018007
      dx2y2   :     0.018638
      dxy     :     0.019755

  9 H s       :     0.903780  s :     0.903780
      pz      :     0.015955  p :     0.065276
      px      :     0.030557
      py      :     0.018764

 10 H s       :     0.903422  s :     0.903422
      pz      :     0.017269  p :     0.065280
      px      :     0.015233
      py      :     0.032779

 11 H s       :     0.903895  s :     0.903895
      pz      :     0.032835  p :     0.065323
      px      :     0.017540
      py      :     0.014948

 12 C s       :     2.917663  s :     2.917663
      pz      :     1.076504  p :     3.176504
      px      :     1.066603
      py      :     1.033396
      dz2     :     0.020367  d :     0.087467
      dxz     :     0.025481
      dyz     :     0.014555
      dx2y2   :     0.012573
      dxy     :     0.014492

 13 C s       :     2.869956  s :     2.869956
      pz      :     1.059398  p :     3.070527
      px      :     1.020569
      py      :     0.990560
      dz2     :     0.027868  d :     0.088576
      dxz     :     0.023186
      dyz     :     0.018849
      dx2y2   :     0.007384
      dxy     :     0.011290

 14 C s       :     2.869866  s :     2.869866
      pz      :     1.043871  p :     3.072363
      px      :     1.026677
      py      :     1.001814
      dz2     :     0.021224  d :     0.088425
      dxz     :     0.023821
      dyz     :     0.014037
[...]
 16 H      0.9902     1.0000     0.0098     0.9949     0.9949    -0.0000
 17 C      5.9982     6.0000     0.0018     3.8663     3.8663     0.0000
 18 H      0.9768     1.0000     0.0232     0.9928     0.9928    -0.0000
 19 C      6.0011     6.0000    -0.0011     3.8490     3.8490     0.0000
 20 H      0.9905     1.0000     0.0095     0.9844     0.9844     0.0000
 21 H      0.9929     1.0000     0.0071     0.9844     0.9844    -0.0000
 22 H      0.9906     1.0000     0.0094     0.9842     0.9842    -0.0000
 23 C      6.2315     6.0000    -0.2315     3.8298     3.8298     0.0000
 24 C      5.9910     6.0000     0.0090     3.9086     3.9086     0.0000
 25 C      5.9753     6.0000     0.0247     3.8934     3.8934     0.0000
 26 C      5.9981     6.0000     0.0019     3.8663     3.8663     0.0000
 27 H      0.9769     1.0000     0.0231     0.9928     0.9928    -0.0000
 28 C      6.0039     6.0000    -0.0039     3.8824     3.8824    -0.0000
 29 H      0.9901     1.0000     0.0099     0.9949     0.9949     0.0000
 30 C      6.0011     6.0000    -0.0011     3.8490     3.8490    -0.0000
 31 H      0.9929     1.0000     0.0071     0.9844     0.9844    -0.0000
 32 H      0.9905     1.0000     0.0095     0.9844     0.9844     0.0000
 33 H      0.9906     1.0000     0.0094     0.9842     0.9842    -0.0000

  Mayer bond orders larger than 0.100000
B(  0-P ,  1-C ) :   0.9387 B(  0-P , 12-C ) :   0.9390 B(  0-P , 23-C ) :   0.9387 
B(  1-C ,  2-C ) :   1.4006 B(  1-C ,  3-C ) :   1.3801 B(  2-C ,  4-C ) :   1.4025 
B(  2-C ,  5-H ) :   0.9871 B(  3-C ,  6-C ) :   1.4222 B(  3-C ,  7-H ) :   0.9888 
B(  4-C ,  8-C ) :   1.3955 B(  4-C ,  9-H ) :   0.9917 B(  6-C ,  8-C ) :   1.3873 
B(  6-C , 10-H ) :   0.9925 B(  8-C , 11-H ) :   0.9914 B( 12-C , 13-C ) :   1.3805 
B( 12-C , 14-C ) :   1.4000 B( 13-C , 15-C ) :   1.4217 B( 13-C , 16-H ) :   0.9888 
B( 14-C , 17-C ) :   1.4027 B( 14-C , 18-H ) :   0.9872 B( 15-C , 19-C ) :   1.3876 
B( 15-C , 20-H ) :   0.9925 B( 17-C , 19-C ) :   1.3952 B( 17-C , 21-H ) :   0.9918 
B( 19-C , 22-H ) :   0.9914 B( 23-C , 24-C ) :   1.4003 B( 23-C , 25-C ) :   1.3802 
B( 24-C , 26-C ) :   1.4025 B( 24-C , 27-H ) :   0.9872 B( 25-C , 28-C ) :   1.4220 
B( 25-C , 29-H ) :   0.9888 B( 26-C , 30-C ) :   1.3954 B( 26-C , 31-H ) :   0.9917 
B( 28-C , 30-C ) :   1.3875 B( 28-C , 32-H ) :   0.9925 B( 30-C , 33-H ) :   0.9914 


-------
TIMINGS
-------

Total SCF time: 0 days 0 hours 0 min 12 sec 

Total time                  ....      12.344 sec
Sum of individual times     ....      11.557 sec  ( 93.6%)

SCF preparation             ....       0.461 sec  (  3.7%)
Fock matrix formation       ....      10.637 sec  ( 86.2%)
  Startup                   ....       0.016 sec  (  0.2% of F)
  Split-RI-J                ....       0.358 sec  (  3.4% of F)
  Chain of spheres X        ....       9.570 sec  ( 90.0% of F)
  XC integration            ....       0.959 sec  (  9.0% of F)
    XC Preparation          ....       0.000 sec  (  0.0% of XC)
    Basis function eval.    ....       0.151 sec  ( 15.8% of XC)
    Density eval.           ....       0.126 sec  ( 13.2% of XC)
    XC-Functional eval.     ....       0.065 sec  (  6.8% of XC)
    XC-Potential eval.      ....       0.108 sec  ( 11.3% of XC)
Diagonalization             ....       0.000 sec  (  0.0%)
Density matrix formation    ....       0.072 sec  (  0.6%)
Total Energy calculation    ....       0.032 sec  (  0.3%)
Population analysis         ....       0.049 sec  (  0.4%)
Orbital Transformation      ....       0.023 sec  (  0.2%)
Orbital Orthonormalization  ....       0.000 sec  (  0.0%)
DIIS solution               ....       0.028 sec  (  0.2%)
SOSCF solution              ....       0.255 sec  (  2.1%)
Finished LeanSCF after  12.4 sec

Maximum memory used throughout the entire LEANSCF-calculation: 36.4 MB
------------------------------------------------------------------------------
                           ORCA ORBITAL LOCALIZATION
------------------------------------------------------------------------------

Input orbitals are from                  ... TPhP_opt.gbw
Output orbitals are to                   ... TPhP_opt.loc
Max. number of iterations                ... 128
Localizations seeded randomly            ... on
Convergence tolerance                    ... 1.000e-06
Threshold for strong local MOs           ... 9.500e-01
Threshold for bond MOs                   ... 8.500e-01
Operator                                 ... 0
Orbital range for localization           ... 20 to 68
Localization criterion                   ... NEW-BOYS
Doing the dipole integrals               ... o.k.
Initial value of the localization sum :  1603.857289
ITERATION   0 : L= 1782.0229613920 DL=  1.78e+02 (AVERGE_DL)=    0.3892318354 
ITERATION   1 : L= 1821.0175280405 DL=  3.90e+01 (AVERGE_DL)=    0.1820951540 
ITERATION   2 : L= 1822.7505228799 DL=  1.73e+00 (AVERGE_DL)=    0.0383879547 
ITERATION   3 : L= 1823.8522790486 DL=  1.10e+00 (AVERGE_DL)=    0.0306082912 
ITERATION   4 : L= 1824.8345256927 DL=  9.82e-01 (AVERGE_DL)=    0.0289005838 
ITERATION   5 : L= 1825.2406788285 DL=  4.06e-01 (AVERGE_DL)=    0.0185840876 
ITERATION   6 : L= 1825.3371443535 DL=  9.65e-02 (AVERGE_DL)=    0.0090569591 
ITERATION   7 : L= 1825.3587451888 DL=  2.16e-02 (AVERGE_DL)=    0.0042857972 
ITERATION   8 : L= 1825.3639058888 DL=  5.16e-03 (AVERGE_DL)=    0.0020948390 
ITERATION   9 : L= 1825.3651756795 DL=  1.27e-03 (AVERGE_DL)=    0.0010391121 
ITERATION  10 : L= 1825.3654902298 DL=  3.15e-04 (AVERGE_DL)=    0.0005171796 
ITERATION  11 : L= 1825.3655681037 DL=  7.79e-05 (AVERGE_DL)=    0.0002573311 
ITERATION  12 : L= 1825.3655873474 DL=  1.92e-05 (AVERGE_DL)=    0.0001279207 
ITERATION  13 : L= 1825.3655920949 DL=  4.75e-06 (AVERGE_DL)=    0.0000635371 
ITERATION  14 : L= 1825.3655932616 DL=  1.17e-06 (AVERGE_DL)=    0.0000314977 
ITERATION  15 : L= 1825.3655935506 DL=  2.89e-07 (AVERGE_DL)=    0.0000156769 
LOCALIZATION SUM CONVERGED


--------------------------------------------------------------------------------
                    LOCALIZED MOLECULAR ORBITAL COMPOSITIONS
--------------------------------------------------------------------------------

The Mulliken populations for each LMO on each atom are computed
The LMO`s will be ordered according to atom index and type
  (A) Strongly localized MO`s have populations of >=0.950 on one atom
  (B) Two center bond orbitals have populations of >=0.850 on two atoms
  (C) Other MO`s are considered to be `delocalized`

FOUND  -   4 strongly local MO`s
       -  45 two center bond MO`s
       -   0 significantly delocalized MO`s

Rather strongly localized orbitals:
MO  23:   0P  -   1.022054
MO  22:   0P  -   1.001259
MO  21:   0P  -   1.001258
MO  20:   0P  -   0.999755
Bond-like localized orbitals:
MO  68:  33H  -   0.508376  and  30C  -   0.521273
MO  67:  32H  -   0.508216  and  28C  -   0.522361
MO  66:  31H  -   0.509593  and  26C  -   0.520873
MO  65:  30C  -   0.511204  and  28C  -   0.508510
MO  64:  30C  -   0.459915  and  26C  -   0.469599
MO  63:  30C  -   0.461671  and  26C  -   0.467179
MO  62:  29H  -   0.504360  and  25C  -   0.526338
MO  61:  28C  -   0.469206  and  25C  -   0.461515
MO  60:  28C  -   0.466553  and  25C  -   0.460610
MO  59:  27H  -   0.497996  and  24C  -   0.533841
MO  58:  26C  -   0.511646  and  24C  -   0.508717
MO  57:  25C  -   0.485534  and  23C  -   0.528885
MO  56:  24C  -   0.435309  and  23C  -   0.486446
MO  55:  24C  -   0.446064  and  23C  -   0.480716
MO  54:  23C  -   0.602283  and   0P  -   0.421468
MO  53:  22H  -   0.508372  and  19C  -   0.521296
MO  52:  21H  -   0.509587  and  17C  -   0.520900
MO  51:  20H  -   0.508210  and  15C  -   0.522365
MO  50:  19C  -   0.459875  and  17C  -   0.469602
MO  49:  19C  -   0.461528  and  17C  -   0.467266
MO  48:  19C  -   0.511221  and  15C  -   0.508493
MO  47:  18H  -   0.497977  and  14C  -   0.533854
MO  46:  17C  -   0.511634  and  14C  -   0.508734
MO  45:  16H  -   0.504376  and  13C  -   0.526344
MO  44:  15C  -   0.469262  and  13C  -   0.461394
MO  43:  15C  -   0.466578  and  13C  -   0.460528
MO  42:  14C  -   0.435128  and  12C  -   0.486606
MO  41:  14C  -   0.446124  and  12C  -   0.480592
MO  40:  13C  -   0.485598  and  12C  -   0.528841
MO  39:  12C  -   0.602241  and   0P  -   0.421586
MO  38:  11H  -   0.508372  and   8C  -   0.521292
MO  37:  10H  -   0.508215  and   6C  -   0.522354
MO  36:   9H  -   0.509598  and   4C  -   0.520864
MO  35:   8C  -   0.511198  and   6C  -   0.508518
MO  34:   8C  -   0.459944  and   4C  -   0.469596
MO  33:   8C  -   0.461683  and   4C  -   0.467191
MO  32:   7H  -   0.504385  and   3C  -   0.526292
MO  31:   6C  -   0.466527  and   3C  -   0.460649
MO  30:   6C  -   0.469233  and   3C  -   0.461528
MO  29:   5H  -   0.497950  and   2C  -   0.533859
MO  28:   4C  -   0.511657  and   2C  -   0.508708
MO  27:   3C  -   0.485547  and   1C  -   0.528829
MO  26:   2C  -   0.435285  and   1C  -   0.486512
MO  25:   2C  -   0.446192  and   1C  -   0.480566
MO  24:   1C  -   0.602171  and   0P  -   0.421566
Localized MO's were stored in: TPhP_opt.loc


-------------------------------------------------------------------------------
                          DFT DISPERSION CORRECTION                            
                                                                               
                                DFTD4 V3.4.0                                   
-------------------------------------------------------------------------------
The WB97X-D3BJ functional is recognized
Active option DFTDOPT                   ...         5   

-------------------------   ----------------
Dispersion correction           -0.099039194
-------------------------   ----------------


-------------------------   --------------------
FINAL SINGLE POINT ENERGY     -1036.079617537428
-------------------------   --------------------

                                *** OPTIMIZATION RUN DONE ***



           ************************************************************
           *        Program running with 32 parallel MPI-processes    *
           *              working on a common directory               *
           ************************************************************

------------------------------------------------------------------------------
                              ORCA PROPERTY CALCULATIONS
------------------------------------------------------------------------------

GBWName                                 ... TPhP_opt.gbw
Number of atoms                         ...     34
Number of basis functions               ...    345
Max core memory                         ...   4096 MB

Electric properties:
Dipole moment                           ... YES
Quadrupole moment                       ...  NO
Static polarizability (Dipole/Dipole)   ...  NO
Static polarizability (Dipole/Quad.)    ...  NO
Static polarizability (Quad./Quad.)     ...  NO
Static polarizability (Velocity)        ...  NO
Static hyperpolarizability              ...  NO

Atomic electric properties:
Dipole moment                           ...  NO
Quadrupole moment                       ...  NO
Static polarizability                   ...  NO

Choice of electric origin               ... Center of mass
Position of electric origin             ...    -6.584017     2.541787    -0.157538

General magnetic properties:
Magnetizability                         ...  NO

EPR properties:
g-Tensor (aka g-matrix)                 ...  NO
Zero-Field splitting spin-orbit         ...  NO
Zero-field splitting spin-spin          ...  NO
Hyperfine couplings                     ...  NO (   0 nuclei)
Quadrupole couplings                    ...  NO (   0 nuclei)
Contact density                         ...  NO (   0 nuclei)

NMR properties:
Chemical shifts                         ...  NO (   0 nuclei)
Spin-rotation constants                 ...  NO (   0 nuclei)
Spin-spin couplings                     ...  NO (   0 nuclei,    0 pairs)

Choice of magnetic origin               ... GIAO
Position of magnetic origin             ...     0.000000     0.000000     0.000000

Properties with geometric perturbations:
SCF Hessian                             ...  NO
IR spectrum                             ...  NO
VCD spectrum                            ...  NO
X-ray spectroscopy properties:
SCF XES/XAS/RIXS spectra                ...  NO

SCF SOC stabilization energy            ...  NO
Diagonal Born-Oppenheimer correction    ...  NO

-------------
DIPOLE MOMENT
-------------

Method             : SCF
Type of density    : Electron Density
Multiplicity       :   1
Irrep              :   0
Energy             : -1035.9805783434751447 Eh
Basis              : AO
                                X                 Y                 Z
Electronic contribution:      5.565008419      -0.350568164      -0.271866726
Nuclear contribution   :     -6.151975158       0.387476880       0.301799542
                        -----------------------------------------
Total Dipole Moment    :     -0.586966739       0.036908716       0.029932816
                        -----------------------------------------
Magnitude (a.u.)       :      0.588887238
Magnitude (Debye)      :      1.496832405



--------------------
Rotational spectrum 
--------------------
 
Rotational constants in cm-1:             0.011984             0.011977             0.007129 
Rotational constants in MHz :           359.284006           359.071105           213.720295 

Dipole components along the rotational axes: 
x,y,z [a.u.] :    -0.000542    -0.000687     0.588887 
x,y,z [Debye]:    -0.001377    -0.001746     1.496831 

 

Dipole moment calculation done in   0.0 sec 

Maximum memory used throughout the entire PROP-calculation: 19.9 MB

--------------------------------
SUGGESTED CITATIONS FOR THIS RUN
--------------------------------

Below you find a list of papers that are relevant to this ORCA run
We neither can nor want to force you to cite these papers, but we appreciate if you do
You receive ORCA, which is the product of decades of hard work by many enthusiastic individuals, for free
The only thing we kindly ask in return is that you cite our papers,
We deeply appreciate it, if you show your appreciation for ORCA by not just citing the generic ORCA reference.

Please note that relegating all ORCA citations to the supporting information does *not* help us.
SI sections are not indexed - citations you put there will not count into any citation statistics
But we need these citations in order to attract the funding resources that allow us to do what we are doing

Therefore, if you are a happy ORCA user, please consider citing a few of the papers listed below in the main body of your paper

In addition to the list printed below, the program has created the file TPhP_opt.bibtex that contains the list in bibtex format
You can import this file easily into all common literature databanks and citation aid programs

It goes without saying that in many instances, there are alternative algorithms to achieve similar
results as the ones you have gotten from ORCA. It is, of course, also the case that in some instances
ORCA just re-implements algorithms worked out by others. We are fully aware of that and we are also
fully appreciative of our colleagues work. Hence this citation list should not be read as indicating
that the listed papers, which are focused on our own work, are the only ones worth citing. It simply
meant to make it easier for users to cite ORCA specific papers. It is not a substitute for doing your
own literature research and citing the relevant literature in a scientifically appropriate manner.

List of essential papers. We consider these as the minimum necessary citations

  1. Neese, F.
     Software update: the ORCA program system, version 6.0
     WIRES Comput. Molec. Sci. 2025 15(1), e70019
     doi.org/10.1002/wcms.70019

List of papers to cite with high priority. The work reported in these papers was absolutely
necessary for this run to complete.
Our perspective: the developers of density functionals and basis sets usually get cited in chemistry papers
Good! But without the algorithms to do something with them, the functionals or basis sets would not do anything.
Hence, in our opinion, the algorithm design and method developments papers are equally worthy of getting cited

  1. Neese, F.
     An improvement of the resolution of the identity approximation for the formation of the Coulomb matrix
     J. Comp. Chem. 2003 24(14), 1740-1747
     doi.org/10.1002/jcc.10318
  2. Neese, F.; Wennmohs, F.; Hansen, A.; Becker, U.
     Efficient, approximate and parallel Hartree-Fock and hybrid DFT calculations. A 'chain-of-spheres' algorithm for the Hartree-Fock exchange
     Chem. Phys. 2009 356(1-3), 98-109
     doi.org/10.1016/j.chemphys.2008.10.036
  3. Caldeweyher, E.; Bannwarth, C.; Grimme, S.
     Extension of the D3 dispersion coefficient model
     J. Chem. Phys. 2017 147 , 034112
     doi.org/10.1063/1.4993215
  4. Caldeweyher, E.; Ehlert, S.; Hansen, A.; Neugebauer, H.; Spicher, S.; Bannwarth, C.; Grimme, S.
     A generally applicable atomic-charge dependent London dispersion correction
     J. Chem. Phys. 2019 150 , 154122
     doi.org/10.1063/1.5090222
  5. Helmich-Paris, B.; de Souza, B.; Neese, F.; Izsák, R.
     An improved chain of spheres for exchange algorithm
     J. Chem. Phys. 2021 155(10), 104109
     doi.org/10.1063/5.0058766
  6. Neese, F.
     The SHARK Integral Generation and Digestion System
     J. Comp. Chem. 2022 44(3), 381
     doi.org/10.1002/jcc.26942

List of suggested additional citations. These are papers that are important in the 'surrounding' of 
of this run, or papers that preceded the highly important papers. If you like your results we are grateful for a citation.

  1. Izsak, R.; Neese, F.
     An overlap fitted chain of spheres exchange method
     J. Chem. Phys. 2011 135 , 144105
     doi.org/10.1063/1.3646921
  2. Izsak, R.; Hansen, A.; Neese, F.
     The resolution of identity and chain of spheres approximations for the LPNO-CCSD singles Fock term
     Molec. Phys. 2012 110 , 2413-2417
     doi.org/10.1080/00268976.2012.687466
  3. Neese, F.
     The ORCA program system
     WIRES Comput. Molec. Sci. 2012 2(1), 73-78
     doi.org/10.1002/wcms.81
  4. Izsak, R.; Neese, F.; Klopper, W.
     Robust fitting techniques in the chain of spheres approximation to the Fock exchange: The role of the complementary space
     J. Chem. Phys. 2013 139 , 
     doi.org/10.1063/1.4819264
  5. Neese, F.
     Software update: the ORCA program system, version 4.0
     WIRES Comput. Molec. Sci. 2018 8(1), 1-6
     doi.org/10.1002/wcms.1327
  6. Neese, F.; Wennmohs, F.; Becker, U.; Riplinger, C.
     The ORCA quantum chemistry program package
     J. Chem. Phys. 2020 152(22), 224108
     doi.org/10.1063/5.0004608
  7. Neese, F.
     Software update: The ORCA program system—Version 5.0
     WIRES Comput. Molec. Sci. 2022 12(1), e1606
     doi.org/10.1002/wcms.1606

List of optional additional citations

  1. Neese, F.
     Approximate second-order SCF convergence for spin unrestricted wavefunctions
     Chem. Phys. Lett. 2000 325(1-3), 93-98
     doi.org/10.1016/s0009-2614(00)00662-x

Timings for individual modules:

Sum of individual times          ...      126.534 sec (=   2.109 min)
Startup calculation              ...       22.772 sec (=   0.380 min)  18.0 %
SCF iterations                   ...       80.786 sec (=   1.346 min)  63.8 %
Property calculations            ...        0.635 sec (=   0.011 min)   0.5 %
SCF Gradient evaluation          ...       22.196 sec (=   0.370 min)  17.5 %
Geometry relaxation              ...        0.041 sec (=   0.001 min)   0.0 %
Orbital localization             ...        0.103 sec (=   0.002 min)   0.1 %
                             ****ORCA TERMINATED NORMALLY****
TOTAL RUN TIME: 0 days 0 hours 2 minutes 15 seconds 27 msec
