
                                 *****************
                                 * O   R   C   A *
                                 *****************

                                            #,                                       
                                            ###                                      
                                            ####                                     
                                            #####                                    
                                            ######                                   
                                           ########,                                 
                                     ,,################,,,,,                         
                               ,,#################################,,                 
                          ,,##########################################,,             
                       ,#########################################, ''#####,          
                    ,#############################################,,   '####,        
                  ,##################################################,,,,####,       
                ,###########''''           ''''###############################       
              ,#####''   ,,,,##########,,,,          '''####'''          '####       
            ,##' ,,,,###########################,,,                        '##       
           ' ,,###''''                  '''############,,,                           
         ,,##''                                '''############,,,,        ,,,,,,###''
      ,#''                                            '''#######################'''  
     '                                                          ''''####''''         
             ,#######,   #######,   ,#######,      ##                                
            ,#'     '#,  ##    ##  ,#'     '#,    #''#        ,####,    ,#,          
            ##       ##  ##   ,#'  ##            #'  '#       #'       ,# #          
            ##       ##  #######   ##           ,######,      #####,      #          
            '#,     ,#'  ##    ##  '#,     ,#' ,#      #,     #,   #      #          
             '#######'   ##     ##  '#######'  #'      '#     '####' #    #          



                #########################################################
                #                        -***-                          #
                #          Department of theory and spectroscopy        #
                #                                                       #
                #                      Frank Neese                      #
                #                                                       #
                #     Directorship, Architecture, Infrastructure        #
                #                    SHARK, DRIVERS                     #
                #        Core code/Algorithms in most modules           #
                #                                                       #
                #        Max Planck Institute fuer Kohlenforschung      #
                #                Kaiser Wilhelm Platz 1                 #
                #                 D-45470 Muelheim/Ruhr                 #
                #                      Germany                          #
                #                                                       #
                #                  All rights reserved                  #
                #                        -***-                          #
                #########################################################


                         Program Version 6.1.1  -  RELEASE   -
                                (GIT: $487d211c$)
                          ($2025-11-21 10:33:24 +0100$)


 With contributions from (in alphabetic order):
[Max-Planck-Institut fuer Kohlenforschung]                               
  Daniel Aravena         : Magnetic Suceptibility                        
  Michael Atanasov       : Ab Initio Ligand Field Theory (pilot matlab implementation)
  Alexander A. Auer      : GIAO ZORA, VPT2 properties, NMR spectrum      
  Ute Becker             : All parallelization in ORCA, NUMFREQ, NUMCALC 
  Giovanni Bistoni       : ED, misc. LED, open-shell LED, HFLD           
  Dmytro Bykov           : pre 5.0 version of the SCF Hessian            
  Marcos Casanova-Páez   : Triplet and SCS-CIS(D). UHF-(DLPNO)-IP/EA/STEOM-CCSD. UHF-CVS-IP/STEOM-CCSD   
  Vijay G. Chilkuri      : MRCI spin determinant printing, contributions to CSF-ICE 
  Pauline Colinet        : FMM embedding                                 
  Dipayan Datta          : RHF DLPNO-CCSD density                        
  Achintya Kumar Dutta   : EOM-CC, STEOM-CC                              
  Nicolas Foglia         : Exact transition moments, OPA infrastructure, MCD improvements    
  Dmitry Ganyushin       : Spin-Orbit,Spin-Spin,Magnetic field MRCI      
  Miquel Garcia-Rates    : C-PCM and meta-GGA Hessian, CCSD/C-PCM, Gaussian charge scheme 
  Tiago L. C. Gouveia    : GS-ROHF, GS-ROCIS                             
  Yang Guo               : DLPNO-NEVPT2, F12-NEVPT2, CIM, IAO-localization        
  Andreas Hansen         : Spin unrestricted coupled pair/coupled cluster methods 
  Ingolf Harden          : AUTO-CI MPn and infrastructure                
  Benjamin Helmich-Paris : MC-RPA, TRAH-(SCF,CASSCF), AVAS, COSX integrals, SCF dyn. polar., MC-PDFT, srDFT 
  Lee Huntington         : MR-EOM, pCC                                   
  Robert Izsak           : Overlap fitted RIJCOSX, COSX-SCS-MP3, EOM     
  Riya Kayal             : Wick's Theorem for AUTO-CI, AUTO-CI UHF-CCSDT 
  Emily Kempfer          : AUTO-CI RHF CISDT and CCSDT, approximate NEVPT4
  Christian Kollmar      : KDIIS, OOCD, Brueckner-CCSD(T), CCSD density, CASPT2, CASPT2-K, improved NEVPT2 
  Axel Koslowski         : Symmetry handling                             
  Simone Kossmann        : meta-GGA functionals, TD-DFT gradient, OOMP2, (MP2 Hessian; deprecated post 5.0) 
  Lucas Lang             : DCDCAS, Hyperfine gauge corrections, ICE-SOC+SSC
  Marvin Lechner         : AUTO-CI (C++ implementation), FIC-MRCC        
  Spencer Leger          : CASSCF response                               
  Dagmar Lenk            : GEPOL surface, SMD, ORCA-2-JSON               
  Dimitrios Liakos       : Extrapolation schemes; Compound Job, Property file
  Dimitrios Manganas     : Further ROCIS development; embedding schemes. LFT, Crystal Embedding 
  Dimitrios Pantazis     : SARC Basis sets                               
  Anastasios Papadopoulos: AUTO-CI, single reference methods and gradients 
  Taras Petrenko         : pre 6.0 DFT Hessian and TD-DFT gradient,  ECA, NRVS 
  Petra Pikulova         : Analytic Raman intensities                    
  Peter Pinski           : DLPNO-MP2, DLPNO-MP2 Gradient                 
  Shashank Vittal Rao    : ES-AILFT, MagRelax                            
  Christoph Reimann      : Effective Core Potentials                     
  Marius Retegan         : Local ZFS, SOC                                
  Christoph Riplinger    : Optimizer, TS searches, QM/MM, DLPNO-CCSD(T), (RO)-DLPNO pert. Triples 
  Michael Roemelt        : Original ROCIS implementation, recursive CI coupling coefficients
  Masaaki Saitow         : Open-shell DLPNO-CCSD energy and density      
  Barbara Sandhoefer     : DKH picture change effects                    
  Yorick L. A. Schmerwitz: GMF and freeze-and-release deltaSCF, NEB S-IDPP initial path                    
  Kantharuban Sivalingam : CASSCF convergence/infrastructure, NEVPT2, NEVPT3, NEVPT4(SD), FIC-MRCI and CEPA variants
  Bernardo de Souza      : ESD, SOC TD-DFT                               
  Georgi L. Stoychev     : AutoAux, RI-MP2 NMR, DLPNO-MP2 response, X2C  
  Van Anh Tran           : RI-MP2 g-tensors                              
  Willem Van den Heuvel  : Paramagnetic NMR                              
  Zikuan Wang            : NOTCH, Electric field optimization            
  Frank Wennmohs         : Technical directorship and infrastructure     
  Hang Xu                : AUTO-CI-Response properties                   
                                                                         
[FACCTs GmbH]                                                            
  Markus Bursch, Nicolas Foglia, Miquel Garcia-Rates, Ingolf Harden, Hagen Neugebauer, Anastasios Papadopoulos, 
  Christoph Riplinger, Bernardo de Souza, Georgi L. Stoychev                                                    
                                                                 
  APM, various basis sets, CI-OPT, improved COSX, DLPNO-Multilevel,           
  DOCKER, DRACO, updates on ESD, Fragmentator, GOAT, IRC, LR-CPCM, L-BFGS, MBIS, meta-GGA TD-DFT gradient, ML-optimized integration grids, 
  MM, NACMEs, nearIR, NEB, NEB-TS, NL-DFT gradient (VV10), 2- and 3-layer-ONIOM, interface openCOSMO-RS, QMMM,   
  Crystal-QMMM, RESP, rigid body optimization, SF, symmetry and pop. for TD-DFT, various functionals, SOLVATOR                                   
                                                                         
[Other institutions]                                                     
  V. Asgeirsson          : NEB                                           
  Christoph Bannwarth    : sTDA-DFT, sTD-DFT, PBEh-3c, B97-3c, D3        
  Giovanni Bistoni       : ETS/NOCV, ADLD/ADEX, COVALED                  
  Martin Brehm           : Molecular dynamics                            
  Ronald Cardenas        : ETS/NOCV                                      
  Martina Colucci        : COVALED                                       
  Sebastian Ehlert       : rSCAN, r2SCAN, r2SCAN-3c, D4, dhf basis sets  
  Marvin Friede          : D4 for Fr, Ra, Ac-Lr                          
  Lars Goerigk           : TD-DFT with DH, B97 family of functionals     
  Stefan Grimme          : VdW corrections, initial TS optimization, DFT functionals, gCP, sTDA/sTD-DF 
  Waldemar Hujo          : DFT-NL                                        
  H. Jonsson             : NEB                                           
  Holger Kruse           : gCP                                           
  Marcel Mueller         : wB97X-3c, vDZP basis set                      
  Hagen Neugebauer       : wr2SCAN, Native XTB                           
  Gianluca Regni         : ADLD/ADEX                                     
  Tobias Risthaus        : pre 6.0 range-separated hybrid DFT and stability analysis
  Lukas Wittmann         : regularized MP2, r2SCAN double-hybrids, wr2SCAN        
                                                                         
We gratefully acknowledge several colleagues who have allowed us to      
interface, adapt or use parts of their codes:                            
  Ed Valeev, F. Pavosevic, A. Kumar             : LibInt (2-el integral package), F12 methods 
  Garnet Chan, S. Sharma, J. Yang, R. Olivares  : DMRG                   
  Ulf Ekstrom                                   : XCFun DFT Library      
  Mihaly Kallay                                 : mrcc  (arbitrary order and MRCC methods)
  Frank Weinhold                                : gennbo (NPA and NBO analysis)           
  Simon Mueller                                 : openCOSMO-RS                            
  Christopher J. Cramer and Donald G. Truhlar   : smd solvation model                     
  S Lehtola, MJT Oliveira, MAL Marques          : LibXC Library                           
  Liviu Ungur et al                             : ANISO software                          


 Your calculation uses the libint2 library for the computation of 2-el integrals
 For citations please refer to: http://libint.valeyev.net

 Your ORCA version has been built with support for libXC version: 7.0.0
 For citations please refer to: https://libxc.gitlab.io

 This ORCA versions uses:
   CBLAS   interface :  Fast vector & matrix operations
   LAPACKE interface :  Fast linear algebra routines
   SCALAPACK package :  Parallel linear algebra routines
   Shared memory     :  Shared parallel matrices
   BLAS/LAPACK       :  OpenBLAS 0.3.29  USE64BITINT DYNAMIC_ARCH NO_AFFINITY Cooperlake SINGLE_THREADED
        Core in use  :  Cooperlake
   Copyright (c) 2011-2014, The OpenBLAS Project


  ***********************************
  * Starting time: Tue Jul 21 17:56:27 2026
  * Host name:     c1-37
  * Process ID:    1323384
  * Working dir.:  /cluster/projects/nn14654k/ylvaos/TPhP_bsse/orca/geomopt_wb97x-d4_def2svp_pet3
  ***********************************

Your calculation utilizes the atom-pairwise dispersion correction
based on EEQ partial charges (D4)


Warning: RI is on but no J-basis has been assigned. Assigning Def2/J (nothing to worry about!)
================================================================================

----- Orbital basis set information -----
Your calculation utilizes the basis: def2-SVP
   F. Weigend and R. Ahlrichs, Phys. Chem. Chem. Phys. 7, 3297 (2005).

----- AuxJ basis set information -----
Your calculation utilizes the auxiliary basis: def2/J
   H-Rn: F. Weigend, Phys. Chem. Chem. Phys. 8, 1057 (2006).
   Fr-Lr: K. Eichkorn, F. Weigend, O. Treutler, R. Ahlrichs; Theor. Chem. Acc. 97, 119 (1997).

================================================================================
                                        WARNINGS
                       Please study these warnings very carefully!
================================================================================


WARNING: Geometry Optimization
  ===> : Switching off AutoStart
         For restart on a previous wavefunction, please use MOREAD

================================================================================
                                       INPUT FILE
================================================================================
NAME = TPhP_pet3_opt.inp
|  1> ! wB97X-D4 def2-SVP TightSCF defgrid3 Opt
|  2> 
|  3> %pal nprocs 32 end
|  4> 
|  5> %loc
|  6>   LocMet NEWBOYS
|  7>   Occ true
|  8> end
|  9> 
| 10> * xyz 0 1
| 11>    P       -2.47443        4.35322        0.97425
| 12>    C       -2.85090        4.23941       -0.86890
| 13>    C       -3.35797        2.82908        1.61696
| 14>    C       -3.82712        5.58012        1.39770
| 15>    C       -2.41177        1.63624        1.71954
| 16>    H       -2.95859        0.76694        2.14161
| 17>    H       -1.99538        1.34113        0.74150
| 18>    H       -1.56839        1.88499        2.39862
| 19>    H       -3.70612        3.04343        2.64968
| 20>    H       -4.24431        2.59718        0.98966
| 21>    C       -2.06882        3.14117       -1.57324
| 22>    H       -0.97834        3.27871       -1.41414
| 23>    H       -2.38464        2.14347       -1.21996
| 24>    H       -2.27936        3.18341       -2.66300
| 25>    H       -3.93787        4.07828       -1.03296
| 26>    H       -2.56460        5.20482       -1.33451
| 27>    C       -3.45518        6.98852        0.94949
| 28>    H       -3.33745        7.03952       -0.15134
| 29>    H       -4.25720        7.69584        1.24819
| 30>    H       -2.50613        7.30280        1.43396
| 31>    H       -3.95393        5.59127        2.50085
| 32>    H       -4.78934        5.27213        0.93588
| 33> **                         ****END OF INPUT****
================================================================================

                       *****************************
                       * Geometry Optimization Run *
                       *****************************

Geometry optimization settings:
Update method            Update   .... BFGS
Choice of coordinates    CoordSys .... (2022) Redundant Internals
Initial Hessian          InHess   .... Almloef's Model
Max. no of cycles        MaxIter  .... 66

Convergence Tolerances:
Energy Change            TolE     ....  5.0000e-06 Eh
Max. Gradient            TolMAXG  ....  3.0000e-04 Eh/bohr
RMS Gradient             TolRMSG  ....  1.0000e-04 Eh/bohr
Max. Displacement        TolMAXD  ....  4.0000e-03 bohr
RMS Displacement         TolRMSD  ....  2.0000e-03 bohr
Strict Convergence                .... False

------------------------------------------------------------------------------
                        ORCA OPTIMIZATION COORDINATE SETUP
------------------------------------------------------------------------------

The optimization will be done in redundant internal coordinates (2022)
Making redundant internal coordinates   ...  (2022 redundants) done
Evaluating the initial hessian          ...  (Almloef) done
Evaluating the coordinates              ...  done
Calculating the B-matrix                .... done
Calculating the G-matrix                .... done
The number of degrees of freedom        ....   93

    -----------------------------------------------------------------
                    Redundant Internal Coordinates


    -----------------------------------------------------------------
         Definition                    Initial Value    Approx d2E/dq
    -----------------------------------------------------------------
      1. B(C   1,P   0)                  1.8846         0.341239   
      2. B(C   2,P   0)                  1.8753         0.353166   
      3. B(C   3,P   0)                  1.8747         0.353983   
      4. B(C   4,C   2)                  1.5260         0.379101   
      5. B(H   5,C   4)                  1.1103         0.334183   
      6. B(H   6,C   4)                  1.1032         0.343065   
      7. B(H   7,C   4)                  1.1110         0.333367   
      8. B(H   8,C   2)                  1.1107         0.333726   
      9. B(H   9,C   2)                  1.1104         0.334159   
     10. B(C  10,C   1)                  1.5211         0.385930   
     11. B(H  11,C  10)                  1.1106         0.333885   
     12. B(H  12,C  10)                  1.1045         0.341401   
     13. B(H  13,C  10)                  1.1107         0.333713   
     14. B(H  14,C   1)                  1.1110         0.333330   
     15. B(H  15,C   1)                  1.1094         0.335325   
     16. B(C  16,C   3)                  1.5241         0.381787   
     17. B(H  17,C  16)                  1.1083         0.336710   
     18. B(H  18,C  16)                  1.1103         0.334226   
     19. B(H  19,C  16)                  1.1109         0.333442   
     20. B(H  20,C   3)                  1.1105         0.334013   
     21. B(H  21,C   3)                  1.1109         0.333540   
     22. A(C   1,P   0,C   3)           96.6781         0.401567   
     23. A(C   2,P   0,C   3)           96.5769         0.404006   
     24. A(C   1,P   0,C   2)          101.0686         0.401403   
     25. A(C  10,C   1,H  14)          109.2642         0.321950   
     26. A(C  10,C   1,H  15)          107.5333         0.322264   
     27. A(P   0,C   1,H  14)          110.4019         0.334798   
     28. A(H  14,C   1,H  15)          108.4640         0.284167   
     29. A(P   0,C   1,C  10)          113.1871         0.382779   
     30. A(P   0,C   1,H  15)          107.8396         0.335130   
     31. A(P   0,C   2,H   9)          110.6228         0.336856   
     32. A(C   4,C   2,H   8)          106.4217         0.321072   
     33. A(P   0,C   2,H   8)          108.0288         0.336784   
     34. A(H   8,C   2,H   9)          108.3840         0.284065   
     35. A(C   4,C   2,H   9)          111.6958         0.321140   
     36. A(P   0,C   2,C   4)          111.4820         0.383879   
     37. A(P   0,C   3,H  21)          110.4663         0.336882   
     38. A(C  16,C   3,H  20)          108.1036         0.321489   
     39. A(C  16,C   3,H  21)          110.2024         0.321414   
     40. A(P   0,C   3,H  20)          108.2619         0.336961   
     41. A(H  20,C   3,H  21)          108.4732         0.284021   
     42. A(P   0,C   3,C  16)          111.2396         0.384505   
     43. A(H   5,C   4,H   6)          108.2675         0.285291   
     44. A(C   2,C   4,H   6)          112.5531         0.322527   
     45. A(C   2,C   4,H   5)          109.4010         0.321144   
     46. A(H   6,C   4,H   7)          108.3767         0.285182   
     47. A(H   5,C   4,H   7)          108.4695         0.284021   
     48. A(C   2,C   4,H   7)          109.6799         0.321016   
     49. A(H  12,C  10,H  13)          107.0957         0.285013   
     50. A(H  11,C  10,H  13)          108.7821         0.284027   
     51. A(C   1,C  10,H  13)          109.2314         0.322010   
     52. A(H  11,C  10,H  12)          110.2923         0.285035   
     53. A(C   1,C  10,H  12)          110.9191         0.323214   
     54. A(C   1,C  10,H  11)          110.4316         0.322037   
     55. A(H  17,C  16,H  18)          108.3388         0.284468   
     56. A(C   3,C  16,H  18)          109.4692         0.321522   
     57. A(C   3,C  16,H  17)          111.1344         0.321912   
     58. A(H  18,C  16,H  19)          108.6354         0.284037   
     59. A(H  17,C  16,H  19)          109.2320         0.284364   
     60. A(C   3,C  16,H  19)          109.9778         0.321399   
     61. D(H  14,C   1,P   0,C   2)     49.6841         0.010000   
     62. D(H  15,C   1,P   0,C   2)    168.0221         0.010000   
     63. D(C  10,C   1,P   0,C   3)   -171.2244         0.010000   
     64. D(C  10,C   1,P   0,C   2)    -73.1529         0.010000   
     65. D(H  14,C   1,P   0,C   3)    -48.3874         0.010000   
     66. D(C   4,C   2,P   0,C   1)     94.5277         0.010000   
     67. D(H   8,C   2,P   0,C   3)    -50.7293         0.010000   
     68. D(H   8,C   2,P   0,C   1)   -148.8834         0.010000   
     69. D(H   9,C   2,P   0,C   1)    -30.4027         0.010000   
     70. D(C   4,C   2,P   0,C   3)   -167.3182         0.010000   
     71. D(H  20,C   3,P   0,C   2)     63.4278         0.010000   
     72. D(C  16,C   3,P   0,C   2)   -177.9313         0.010000   
     73. D(C  16,C   3,P   0,C   1)    -75.9217         0.010000   
     74. D(H  21,C   3,P   0,C   1)     46.7976         0.010000   
     75. D(H  20,C   3,P   0,C   1)    165.4374         0.010000   
     76. D(H   6,C   4,C   2,H   9)     62.4247         0.011457   
     77. D(H   6,C   4,C   2,H   8)   -179.4679         0.011457   
     78. D(H   6,C   4,C   2,P   0)    -61.9043         0.011457   
     79. D(H   5,C   4,C   2,H   9)    -57.9798         0.011457   
     80. D(H   5,C   4,C   2,H   8)     60.1275         0.011457   
     81. D(H   5,C   4,C   2,P   0)    177.6912         0.011457   
     82. D(H  12,C  10,C   1,H  14)    -56.9177         0.011852   
     83. D(H  12,C  10,C   1,P   0)     66.5475         0.011852   
     84. D(H  11,C  10,C   1,H  15)     62.9608         0.011852   
     85. D(H  11,C  10,C   1,H  14)   -179.5063         0.011852   
     86. D(H  12,C  10,C   1,H  15)   -174.4506         0.011852   
     87. D(H  11,C  10,C   1,P   0)    -56.0411         0.011852   
     88. D(H  18,C  16,C   3,P   0)   -177.8732         0.011612   
     89. D(H  17,C  16,C   3,H  21)    -60.3770         0.011612   
     90. D(H  17,C  16,C   3,H  20)   -178.7700         0.011612   
     91. D(H  17,C  16,C   3,P   0)     62.4942         0.011612   
     92. D(H  18,C  16,C   3,H  21)     59.2556         0.011612   
     93. D(H  18,C  16,C   3,H  20)    -59.1374         0.011612   
    -----------------------------------------------------------------

Number of atoms                         .... 22
Number of degrees of freedom            .... 93


         *************************************************************
         *                GEOMETRY OPTIMIZATION CYCLE   1            *
         *************************************************************
---------------------------------
CARTESIAN COORDINATES (ANGSTROEM)
---------------------------------
  P     -2.474430    4.353220    0.974250
  C     -2.850900    4.239410   -0.868900
  C     -3.357970    2.829080    1.616960
  C     -3.827120    5.580120    1.397700
  C     -2.411770    1.636240    1.719540
  H     -2.958590    0.766940    2.141610
  H     -1.995380    1.341130    0.741500
  H     -1.568390    1.884990    2.398620
  H     -3.706120    3.043430    2.649680
  H     -4.244310    2.597180    0.989660
  C     -2.068820    3.141170   -1.573240
  H     -0.978340    3.278710   -1.414140
  H     -2.384640    2.143470   -1.219960
  H     -2.279360    3.183410   -2.663000
  H     -3.937870    4.078280   -1.032960
  H     -2.564600    5.204820   -1.334510
  C     -3.455180    6.988520    0.949490
  H     -3.337450    7.039520   -0.151340
  H     -4.257200    7.695840    1.248190
  H     -2.506130    7.302800    1.433960
  H     -3.953930    5.591270    2.500850
  H     -4.789340    5.272130    0.935880

----------------------------
CARTESIAN COORDINATES (A.U.)
----------------------------
  NO LB      ZA    FRAG     MASS         X           Y           Z
   0 P    15.0000    0    30.974   -4.675995    8.226394    1.841066
   1 C     6.0000    0    12.011   -5.387420    8.011324   -1.641983
   2 C     6.0000    0    12.011   -6.345644    5.346186    3.055612
   3 C     6.0000    0    12.011   -7.232209   10.544899    2.641270
   4 C     6.0000    0    12.011   -4.557585    3.092045    3.249460
   5 H     1.0000    0     1.008   -5.590925    1.449307    4.047056
   6 H     1.0000    0     1.008   -3.770722    2.534368    1.401232
   7 H     1.0000    0     1.008   -2.963828    3.562115    4.532735
   8 H     1.0000    0     1.008   -7.003552    5.751249    5.007170
   9 H     1.0000    0     1.008   -8.020584    4.907959    1.870186
  10 C     6.0000    0    12.011   -3.909503    5.935951   -2.972993
  11 H     1.0000    0     1.008   -1.848795    6.195864   -2.672337
  12 H     1.0000    0     1.008   -4.506317    4.050571   -2.305390
  13 H     1.0000    0     1.008   -4.307366    6.015773   -5.032341
  14 H     1.0000    0     1.008   -7.441496    7.706832   -1.952012
  15 H     1.0000    0     1.008   -4.846392    9.835684   -2.521858
  16 C     6.0000    0    12.011   -6.529344   13.206389    1.794276
  17 H     1.0000    0     1.008   -6.306866   13.302765   -0.285991
  18 H     1.0000    0     1.008   -8.044942   14.543030    2.358737
  19 H     1.0000    0     1.008   -4.735899   13.800292    2.709792
  20 H     1.0000    0     1.008   -7.471845   10.565969    4.725922
  21 H     1.0000    0     1.008   -9.050541    9.962882    1.768557

--------------------------------
INTERNAL COORDINATES (ANGSTROEM)
--------------------------------
 P      0   0   0     0.000000000000     0.00000000     0.00000000
 C      1   0   0     1.884644342973     0.00000000     0.00000000
 C      1   2   0     1.875292461271   101.06860765     0.00000000
 C      1   2   3     1.874663636122    96.67814936   261.92848384
 C      3   1   2     1.526002739840   111.48196214    94.52768201
 H      5   3   1     1.110332241854   109.40096071   177.69116828
 H      5   3   1     1.103192089257   112.55313933   298.09567932
 H      5   3   1     1.110997764759   109.67992723    58.83161604
 H      3   1   2     1.110704705761   108.02875800   211.11663825
 H      3   1   2     1.110351969242   110.62281440   329.59730828
 C      2   1   3     1.521142682197   113.18711803   286.84709827
 H     11   2   1     1.110574937589   110.43157319   303.95894639
 H     11   2   1     1.104515423523   110.91911751    66.54752836
 H     11   2   1     1.110715160066   109.23139056   184.36516992
 H      2   1   3     1.111027606048   110.40189199    49.68410415
 H      2   1   3     1.109403817462   107.83957802   168.02206497
 C      4   1   2     1.524080748419   111.23958962   284.07827221
 H     17   4   1     1.108281571533   111.13438023    62.49416468
 H     17   4   1     1.110296966041   109.46924897   182.12679649
 H     17   4   1     1.110936092581   109.97780941   301.41082950
 H      4   1   2     1.110470630454   108.26193682   165.43744716
 H      4   1   2     1.110856822862   110.46633837    46.79764489

---------------------------
INTERNAL COORDINATES (A.U.)
---------------------------
 P      0   0   0     0.000000000000     0.00000000     0.00000000
 C      1   0   0     3.561461668063     0.00000000     0.00000000
 C      1   2   0     3.543789172809   101.06860765     0.00000000
 C      1   2   3     3.542600865493    96.67814936   261.92848384
 C      3   1   2     2.883727257912   111.48196214    94.52768201
 H      5   3   1     2.098223854766   109.40096071   177.69116828
 H      5   3   1     2.084730921805   112.55313933   298.09567932
 H      5   3   1     2.099481510794   109.67992723    58.83161604
 H      3   1   2     2.098927709546   108.02875800   211.11663825
 H      3   1   2     2.098261134128   110.62281440   329.59730828
 C      2   1   3     2.874543079970   113.18711803   286.84709827
 H     11   2   1     2.098682483239   110.43157319   303.95894639
 H     11   2   1     2.087231661150   110.91911751    66.54752836
 H     11   2   1     2.098947465319   109.23139056   184.36516992
 H      2   1   3     2.099537902656   110.40189199    49.68410415
 H      2   1   3     2.096469386931   107.83957802   168.02206497
 C      4   1   2     2.880095220493   111.23958962   284.07827221
 H     17   4   1     2.094348649470   111.13438023    62.49416468
 H     17   4   1     2.098157193141   109.46924897   182.12679649
 H     17   4   1     2.099364967267   109.97780941   301.41082950
 H      4   1   2     2.098485371320   108.26193682   165.43744716
 H      4   1   2     2.099215169208   110.46633837    46.79764489

---------------------
BASIS SET INFORMATION
---------------------
There are 3 groups of distinct atoms

 Group   1 Type P   : 10s7p1d contracted to 4s3p1d pattern {5311/511/1}
 Group   2 Type C   : 7s4p1d contracted to 3s2p1d pattern {511/31/1}
 Group   3 Type H   : 4s1p contracted to 2s1p pattern {31/1}

Atom   0P    basis set group =>   1
Atom   1C    basis set group =>   2
Atom   2C    basis set group =>   2
Atom   3C    basis set group =>   2
Atom   4C    basis set group =>   2
Atom   5H    basis set group =>   3
Atom   6H    basis set group =>   3
Atom   7H    basis set group =>   3
Atom   8H    basis set group =>   3
Atom   9H    basis set group =>   3
Atom  10C    basis set group =>   2
Atom  11H    basis set group =>   3
Atom  12H    basis set group =>   3
Atom  13H    basis set group =>   3
Atom  14H    basis set group =>   3
Atom  15H    basis set group =>   3
Atom  16C    basis set group =>   2
Atom  17H    basis set group =>   3
Atom  18H    basis set group =>   3
Atom  19H    basis set group =>   3
Atom  20H    basis set group =>   3
Atom  21H    basis set group =>   3
---------------------------------
AUXILIARY/J BASIS SET INFORMATION
---------------------------------
There are 3 groups of distinct atoms

 Group   1 Type P   : 14s5p5d2f1g contracted to 8s4p3d1f1g pattern {71111111/2111/311/2/1}
 Group   2 Type C   : 12s5p4d2f1g contracted to 6s4p3d1f1g pattern {711111/2111/211/2/1}
 Group   3 Type H   : 5s2p1d contracted to 3s1p1d pattern {311/2/1}

Atom   0P    basis set group =>   1
Atom   1C    basis set group =>   2
Atom   2C    basis set group =>   2
Atom   3C    basis set group =>   2
Atom   4C    basis set group =>   2
Atom   5H    basis set group =>   3
Atom   6H    basis set group =>   3
Atom   7H    basis set group =>   3
Atom   8H    basis set group =>   3
Atom   9H    basis set group =>   3
Atom  10C    basis set group =>   2
Atom  11H    basis set group =>   3
Atom  12H    basis set group =>   3
Atom  13H    basis set group =>   3
Atom  14H    basis set group =>   3
Atom  15H    basis set group =>   3
Atom  16C    basis set group =>   2
Atom  17H    basis set group =>   3
Atom  18H    basis set group =>   3
Atom  19H    basis set group =>   3
Atom  20H    basis set group =>   3
Atom  21H    basis set group =>   3


           ************************************************************
           *        Program running with 32 parallel MPI-processes    *
           *              working on a common directory               *
           ************************************************************
------------------------------------------------------------------------------
                             ORCA STARTUP CALCULATIONS
                           -- RI-GTO INTEGRALS CHOSEN --
------------------------------------------------------------------------------
------------------------------------------------------------------------------
                   ___                                                        
                  /   \      - P O W E R E D   B Y -                         
                 /     \                                                     
                 |  |  |   _    _      __       _____    __    __             
                 |  |  |  | |  | |    /  \     |  _  \  |  |  /  |          
                  \  \/   | |  | |   /    \    | | | |  |  | /  /          
                 / \  \   | |__| |  /  /\  \   | |_| |  |  |/  /          
                |  |  |   |  __  | /  /__\  \  |    /   |      \           
                |  |  |   | |  | | |   __   |  |    \   |  |\   \          
                \     /   | |  | | |  |  |  |  | |\  \  |  | \   \       
                 \___/    |_|  |_| |__|  |__|  |_| \__\ |__|  \__/        
                                                                              
                      - O R C A' S   B I G   F R I E N D -                    
                                      &                                       
                       - I N T E G R A L  F E E D E R -                       
                                                                              
 v1 FN, 2020, v2 2021, v3 2022-2024                                           
------------------------------------------------------------------------------


----------------------
SHARK INTEGRAL PACKAGE
----------------------

Number of atoms                             ...     22
Number of basis functions                   ...    177
Number of shells                            ...     89
Maximum angular momentum                    ...      2
Integral batch strategy                     ... SHARK/LIBINT Hybrid
RI-J (if used) integral strategy            ... SPLIT-RIJ (Revised 2003 algorithm where possible)
Printlevel                                  ...      1
Contraction scheme used                     ... SEGMENTED contraction
Prescreening option                         ... SCHWARTZ
   Thresh                                   ... 2.500e-11
   Tcut                                     ... 2.500e-12
   Tpresel                                  ... 2.500e-12 
Coulomb Range Separation                    ... NOT USED
Exchange Range Separation                   ... Long Range
   Mu parameter                             ... 3.000e-01
   Scaling (regular/separated)              ... 1.670e-01 8.330e-01
Robust (split-)RI terms used:
  metric    (central integrals)             ... YES
  density   (r.h.s.  integrals)             ... YES
  potential (l.h.s.  integrals)             ... YES
Multipole approximations                    ... NOT USED
Finite Nucleus Model                        ... NOT USED
CABS basis                                  ... NOT available
Auxiliary Coulomb fitting basis             ... AVAILABLE
   # of basis functions in Aux-J            ...    510
   # of shells in Aux-J                     ...    182
   Maximum angular momentum in Aux-J        ...      4
Auxiliary J/K fitting basis                 ... NOT available
Auxiliary Correlation fitting basis         ... NOT available
Auxiliary 'external' fitting basis          ... NOT available

Checking pre-screening integrals            ... done (  0.0 sec) Dimension = 89
   => SHARK Basis and OBASIS are compatible. Storing Pre-screening
Shell pair information
Shell pair cut-off parameter TPreSel        ...   2.5e-12
Total number of shell pairs                 ...      4005
Shell pairs after pre-screening             ...      3718
Total number of primitive shell pairs       ...     13841
Primitive shell pairs kept                  ...      9345
          la=0 lb=0:   1303 shell pairs
          la=1 lb=0:   1444 shell pairs
          la=1 lb=1:    410 shell pairs
          la=2 lb=0:    341 shell pairs
          la=2 lb=1:    193 shell pairs
          la=2 lb=2:     27 shell pairs

Checking whether 4 symmetric matrices of dimension 177 fit in memory
:Max Core in MB      =   4096.00
 MB in use           =      8.00
 MB left             =   4088.00
 MB needed           =      0.48
 Data fit in memory  = YES
Calculating RI/J V-Matrix + Cholesky decomp.... done (  0.0 sec)
Calculating Nuclear repulsion               ... done (  0.0 sec) ENN=    396.538991872196 Eh

Diagonalization of the overlap matrix:
Smallest eigenvalue                        ... 2.257e-03
Time for diagonalization                   ...    0.002 sec
Threshold for overlap eigenvalues          ... 1.000e-07
Number of eigenvalues below threshold      ... 0
Time for construction of square roots      ...    0.002 sec
Total time needed                          ...    0.006 sec

-------------------
DFT GRID GENERATION
-------------------

General Integration Accuracy     IntAcc      ... 4.959
Radial Grid Type                 RadialGrid  ... OptM3 with GC (2021)
Angular Grid (max. ang.)         AngularGrid ... 6 (Lebedev-590)
Angular grid pruning method      GridPruning ... 4 (adaptive)
Weight generation scheme         WeightScheme... mBecke (2022)
Basis function cutoff            BFCut       ... 1.0000e-11
Integration weight cutoff        WCut        ... 1.0000e-14
Partially contracted basis set               ... off
Rotationally invariant grid construction     ... off
Angular grids for H and He will be reduced by one unit

Total number of grid points                  ...   231255
Total number of batches                      ...     3625
Average number of points per batch           ...       63
Average number of grid points per atom       ...    10512

--------------------
COSX GRID GENERATION
--------------------

GRIDX 1
-------
General Integration Accuracy     IntAcc      ... 4.020
Radial Grid Type                 RadialGrid  ... OptM3 with GC (2021)
Angular Grid (max. ang.)         AngularGrid ... 2 (Lebedev-110)
Angular grid pruning method      GridPruning ... 4 (adaptive)
Weight generation scheme         WeightScheme... mBecke (2022)
Basis function cutoff            BFCut       ... 1.0000e-11
Integration weight cutoff        WCut        ... 1.0000e-14
Partially contracted basis set               ... on
Rotationally invariant grid construction     ... off
Angular grids for H and He will be reduced by one unit

Total number of grid points                  ...    23954
Total number of batches                      ...      200
Average number of points per batch           ...      119
Average number of grid points per atom       ...     1089
UseSFitting                                  ... on

GRIDX 2
-------
General Integration Accuracy     IntAcc      ... 4.338
Radial Grid Type                 RadialGrid  ... OptM3 with GC (2021)
Angular Grid (max. ang.)         AngularGrid ... 3 (Lebedev-194)
Angular grid pruning method      GridPruning ... 4 (adaptive)
Weight generation scheme         WeightScheme... mBecke (2022)
Basis function cutoff            BFCut       ... 1.0000e-11
Integration weight cutoff        WCut        ... 1.0000e-14
Partially contracted basis set               ... on
Rotationally invariant grid construction     ... off
Angular grids for H and He will be reduced by one unit

Total number of grid points                  ...    52619
Total number of batches                      ...      422
Average number of points per batch           ...      124
Average number of grid points per atom       ...     2392
UseSFitting                                  ... on

GRIDX 3
-------
General Integration Accuracy     IntAcc      ... 4.871
Radial Grid Type                 RadialGrid  ... OptM3 with GC (2021)
Angular Grid (max. ang.)         AngularGrid ... 4 (Lebedev-302)
Angular grid pruning method      GridPruning ... 4 (adaptive)
Weight generation scheme         WeightScheme... mBecke (2022)
Basis function cutoff            BFCut       ... 1.0000e-11
Integration weight cutoff        WCut        ... 1.0000e-14
Partially contracted basis set               ... on
Rotationally invariant grid construction     ... off
Angular grids for H and He will be reduced by one unit

Total number of grid points                  ...   104785
Total number of batches                      ...      830
Average number of points per batch           ...      126
Average number of grid points per atom       ...     4763
UseSFitting                                  ... on
Grids setup in   1.8 sec
Initializing property integral containers    ... done (  0.0 sec)

SHARK setup successfully completed in   2.0 seconds

Maximum memory used throughout the entire STARTUP-calculation: 45.9 MB


           ************************************************************
           *        Program running with 32 parallel MPI-processes    *
           *              working on a common directory               *
           ************************************************************
-------------------------------------------------------------------------------
                                 ORCA GUESS
                   Start orbitals & Density for SCF / CASSCF
-------------------------------------------------------------------------------

------------
SCF SETTINGS
------------
Hamiltonian:
 Density Functional     Method          .... DFT(GTOs)
 Exchange Functional    Exchange        .... WB97X-V
 Correlation Functional Correlation     .... WB97X-V
 Gradients option       PostSCFGGA      .... off
 Hybrid DFT is turned on
   Fraction HF Exchange ScalHFX         ....  0.167000
   Scaling of DF-GGA-X  ScalDFX         ....  0.000000
   Scaling of DF-GGA-C  ScalDFC         ....  1.000000
   Scaling of DF-LDA-C  ScalLDAC        ....  1.000000
   Perturbative correction              ....  0.000000
 Long-range corrected/Screened/Range-Separated Hybrid DFT is turned on
   Amount of maximum screened exact exchange              ....  0.833000
   Range separation parameter mu (erf(mu*r12)/r12)        ....  0.300000
 RI-approximation to the Coulomb term is turned on
   Number of AuxJ basis functions       .... 510
   RIJ-COSX (HFX calculated with COS-X)).... on


General Settings:
 Integral files         IntName         .... TPhP_pet3_opt
 Hartree-Fock type      HFTyp           .... RHF
 Total Charge           Charge          ....    0
 Multiplicity           Mult            ....    1
 Number of Electrons    NEL             ....   66
 Basis Dimension        Dim             ....  177
 Nuclear Repulsion      ENuc            ....    396.5389918722 Eh

Convergence Acceleration:
 AO-DIIS                CNVDIIS         .... on
   Start iteration      DIISMaxIt       ....    12
   Startup error        DIISStart       ....  0.200000
   # of expansion vecs  DIISMaxEq       ....     5
   Bias factor          DIISBfac        ....   1.050
   Max. coefficient     DIISMaxC        ....  10.000
 MO-DIIS                CNVKDIIS        .... off
 Trust-Rad. Augm. Hess. CNVTRAH         .... auto
   Auto Start mean grad. ratio tolernc. ....  1.125000
   Auto Start start iteration           ....    50
   Auto Start num. interpolation iter.  ....    10
   Max. Number of Micro iterations      ....    24
   Max. Number of Macro iterations      .... Maxiter - #DIIS iter
   Number of Davidson start vectors     ....     2
   Converg. threshold    (grad. norm)   ....   1.000e-05
   Grad. Scal. Fac. for Micro threshold ....   0.100
   Minimum threshold for Micro iter.    ....   1.000e-02
   NR start threshold (gradient norm)   ....   1.000e-04
   Initial trust radius                 ....   0.400
   Minimum AH scaling param. (alpha)    ....   1.000
   Maximum AH scaling param. (alpha)    .... 1000.000
   Quad. conv. algorithm                .... NR
   White noise on init. David. guess    .... on
   Maximum white noise                  ....   0.010
   Pseudo random numbers                .... off
   Inactive MOs                         .... canonical
   Orbital update algorithm             .... Taylor
   Preconditioner                       .... Diag
   Full preconditioner red. dimension   ....   250
 SOSCF                 CNVSOSCF           .... on
   Start iteration     SOSCFMaxIt         ....   150
   Startup grad/error  SOSCFStart         ....  0.003300
   Hessian update      SOSCFHessUp        .... L-BFGS
   Autom. constraints  SOSCFAutoConstrain .... off
 Level Shifting         CNVShift        .... on
   Level shift para.    LevelShift      ....    0.2500
   Turn off err/grad.   ShiftErr        ....    0.0010
 Zerner damping         CNVZerner       .... off
 Static damping         CNVDamp         .... on
   Fraction old density DampFac         ....    0.7000
   Max. Damping (<1)    DampMax         ....    0.9800
   Min. Damping (>=0)   DampMin         ....    0.0000
   Turn off err/grad.   DampErr         ....    0.1000

SCF Procedure:
 Maximum # iterations   MaxIter         ....   125
 SCF integral mode      SCFMode         .... Direct
   Integral package                     .... SHARK and LIBINT hybrid scheme
 Reset frequency        DirectResetFreq ....    20
 Integral Threshold     Thresh          ....  2.500e-11 Eh
 Primitive CutOff       TCut            ....  2.500e-12 Eh

Convergence Tolerance:
 Convergence Check Mode ConvCheckMode   .... Total+1el-Energy
 Convergence forced     ConvForced      .... 0
 Energy Change          TolE            ....  1.000e-08 Eh
 1-El. energy change                    ....  1.000e-05 Eh
 Orbital Gradient       TolG            ....  1.000e-05
 Orbital Rotation angle TolX            ....  1.000e-05
 DIIS Error             TolErr          ....  5.000e-07

------------------------------
INITIAL GUESS: MODEL POTENTIAL
------------------------------
Loading Hartree-Fock densities                     ... done
Calculating cut-offs                               ... done
Initializing the effective Hamiltonian             ... done
Setting up the integral package (SHARK)            ... done
Starting the Coulomb interaction                   ... done (   0.0 sec)
Making the grid                                    ... done (   0.1 sec)
Mapping shells                                     ... done
Starting the XC term evaluation                    ... done (   0.0 sec)
  promolecular density results
     # of electrons  =     65.997288906
     EX              =    -39.534748386
     EC              =     -2.742998180
     EX+EC           =    -42.277746566
Transforming the Hamiltonian                       ... done (   0.0 sec)
Diagonalizing the Hamiltonian                      ... done (   0.0 sec)
Back transforming the eigenvectors                 ... done (   0.0 sec)
Now organizing SCF variables                       ... done
                      ------------------
                      INITIAL GUESS DONE (   0.1 sec)
                      ------------------
             **** ENERGY FILE WAS UPDATED (TPhP_pet3_opt.en.tmp) ****
Finished Guess after   0.5 sec
Maximum memory used throughout the entire GUESS-calculation: 10.5 MB


           ************************************************************
           *        Program running with 32 parallel MPI-processes    *
           *              working on a common directory               *
           ************************************************************

-------------------------------------------------------------------------------------------
                                      ORCA LEAN-SCF
                              memory conserving SCF solver
-------------------------------------------------------------------------------------------

----------------------------------------D-I-I-S--------------------------------------------
Iteration    Energy (Eh)           Delta-E    RMSDP     MaxDP     DIISErr   Damp  Time(sec)
-------------------------------------------------------------------------------------------
               ***  Starting incremental Fock matrix formation  ***
    1    -578.8200631446202351     0.00e+00  1.04e-02  1.22e-01  1.35e-01  0.700   0.6
    2    -578.8430482120484157    -2.30e-02  8.81e-03  1.09e-01  8.82e-02  0.700   0.3
                               ***Turning on AO-DIIS***
    3    -578.8565496533784653    -1.35e-02  5.94e-03  7.42e-02  5.64e-02  0.700   0.3
    4    -578.8651485993390224    -8.60e-03  1.46e-02  1.78e-01  3.88e-02  0.000   0.3
                              *** Initializing SOSCF ***
---------------------------------------S-O-S-C-F--------------------------------------
Iteration    Energy (Eh)           Delta-E    RMSDP     MaxDP     MaxGrad    Time(sec)
--------------------------------------------------------------------------------------
    5    -578.8847758206130720    -1.96e-02  1.59e-03  1.46e-02  2.35e-03     0.3
               *** Restarting incremental Fock matrix formation ***
    6    -578.8848722266692448    -9.64e-05  1.04e-03  9.72e-03  6.91e-04     0.5
    7    -578.8848874442544457    -1.52e-05  4.17e-04  2.89e-03  2.06e-04     0.5
    8    -578.8848889560632642    -1.51e-06  4.20e-05  3.37e-04  4.36e-05     0.4
    9    -578.8848891178520262    -1.62e-07  1.87e-05  1.12e-04  1.31e-05     0.4
   10    -578.8848891288974983    -1.10e-08  4.28e-06  3.61e-05  4.00e-06     0.4
   11    -578.8848891354923580    -6.59e-09  2.31e-06  1.95e-05  1.66e-06     0.3
                 **** Energy Check signals convergence ****

               *****************************************************
               *                     SUCCESS                       *
               *           SCF CONVERGED AFTER  11 CYCLES          *
               *****************************************************

Recomputing exchange energy using gridx3       ... done (    0.654 sec)
Old exchange energy                            :    -18.427778725 Eh
New exchange energy                            :    -18.427770073 Eh
Exchange energy change after final integration :      0.000008652 Eh
Total energy after final integration           :   -578.884880484 Eh
             **** ENERGY FILE WAS UPDATED (TPhP_pet3_opt.en.tmp) ****

----------------
TOTAL SCF ENERGY
----------------

Total Energy       :       -578.88488048363718 Eh          -15752.25843 eV

Components:
Nuclear Repulsion  :        396.53899187219577 Eh           10790.37454 eV
Electronic Energy  :       -975.42388100776509 Eh          -26542.63320 eV
One Electron Energy:      -1576.96895213607968 Eh          -42911.50677 eV
Two Electron Energy:        601.54507112831459 Eh           16368.87356 eV

Virial components:
Potential Energy   :      -1153.18010962186418 Eh          -31379.62609 eV
Kinetic Energy     :        574.29522913822700 Eh           15627.36766 eV
Virial Ratio       :          2.00799179779414

DFT components:
N(Alpha)           :       32.999994305456 electrons
N(Beta)            :       32.999994305456 electrons
N(Total)           :       65.999988610913 electrons
E(X)               :      -40.264355018941 Eh       
E(C)               :       -2.769868931452 Eh       
E(XC)              :      -43.034223950394 Eh       

---------------
SCF CONVERGENCE
---------------

  Last Energy change         ...    6.5949e-09  Tolerance :   1.0000e-08
  Last MAX-Density change    ...    1.9495e-05  Tolerance :   1.0000e-07
  Last RMS-Density change    ...    2.3062e-06  Tolerance :   5.0000e-09
  Last DIIS Error            ...    2.3515e-03  Tolerance :   5.0000e-07
  Last Orbital Gradient      ...    1.6552e-06  Tolerance :   1.0000e-05
  Last Orbital Rotation      ...    4.1939e-06  Tolerance :   1.0000e-05


----------------
ORBITAL ENERGIES
----------------

  NO   OCC          E(Eh)            E(eV) 
   0   2.0000     -77.046272     -2096.5356 
   1   2.0000     -10.287285      -279.9312 
   2   2.0000     -10.286459      -279.9088 
   3   2.0000     -10.284865      -279.8654 
   4   2.0000     -10.283820      -279.8370 
   5   2.0000     -10.282072      -279.7894 
   6   2.0000     -10.280997      -279.7602 
   7   2.0000      -6.641816      -180.7330 
   8   2.0000      -4.799611      -130.6041 
   9   2.0000      -4.799347      -130.5969 
  10   2.0000      -4.795861      -130.5020 
  11   2.0000      -0.918242       -24.9866 
  12   2.0000      -0.880391       -23.9567 
  13   2.0000      -0.877919       -23.8894 
  14   2.0000      -0.778585       -21.1864 
  15   2.0000      -0.725901       -19.7528 
  16   2.0000      -0.713445       -19.4138 
  17   2.0000      -0.643057       -17.4985 
  18   2.0000      -0.579763       -15.7761 
  19   2.0000      -0.559733       -15.2311 
  20   2.0000      -0.550467       -14.9790 
  21   2.0000      -0.546122       -14.8607 
  22   2.0000      -0.521122       -14.1804 
  23   2.0000      -0.505111       -13.7448 
  24   2.0000      -0.485377       -13.2078 
  25   2.0000      -0.472834       -12.8665 
  26   2.0000      -0.471136       -12.8203 
  27   2.0000      -0.461254       -12.5514 
  28   2.0000      -0.447031       -12.1643 
  29   2.0000      -0.444590       -12.0979 
  30   2.0000      -0.394434       -10.7331 
  31   2.0000      -0.391422       -10.6511 
  32   2.0000      -0.321993        -8.7619 
  33   0.0000       0.121826         3.3151 
  34   0.0000       0.136001         3.7008 
  35   0.0000       0.139564         3.7977 
  36   0.0000       0.163056         4.4370 
  37   0.0000       0.174108         4.7377 
  38   0.0000       0.176425         4.8008 
  39   0.0000       0.194040         5.2801 
  40   0.0000       0.206320         5.6142 
  41   0.0000       0.216834         5.9004 
  42   0.0000       0.219465         5.9719 
  43   0.0000       0.222222         6.0470 
*Only the first 10 virtual orbitals were printed.

                    ********************************
                    * MULLIKEN POPULATION ANALYSIS *
                    ********************************

-----------------------
MULLIKEN ATOMIC CHARGES
-----------------------
   0 P :    0.151300
   1 C :   -0.226292
   2 C :   -0.220984
   3 C :   -0.216490
   4 C :   -0.001048
   5 H :    0.026212
   6 H :    0.022041
   7 H :    0.033780
   8 H :    0.049891
   9 H :    0.039449
  10 C :   -0.014726
  11 H :    0.036888
  12 H :    0.032208
  13 H :    0.027493
  14 H :    0.038273
  15 H :    0.055631
  16 C :   -0.010720
  17 H :    0.026395
  18 H :    0.028623
  19 H :    0.036062
  20 H :    0.047836
  21 H :    0.038176
Sum of atomic charges:    0.0000000

--------------------------------
MULLIKEN REDUCED ORBITAL CHARGES
--------------------------------
  0 P s       :     5.785246  s :     5.785246
      pz      :     2.820136  p :     8.897403
      px      :     3.289436
      py      :     2.787830
      dz2     :     0.051231  d :     0.166051
      dxz     :     0.022040
      dyz     :     0.025235
      dx2y2   :     0.017779
      dxy     :     0.049766

  1 C s       :     3.123961  s :     3.123961
      pz      :     1.020083  p :     3.071728
      px      :     1.020718
      py      :     1.030927
      dz2     :     0.007514  d :     0.030603
      dxz     :     0.004137
      dyz     :     0.005602
      dx2y2   :     0.008834
      dxy     :     0.004516

  2 C s       :     3.123136  s :     3.123136
      pz      :     1.025876  p :     3.067576
      px      :     1.033317
      py      :     1.008383
      dz2     :     0.005640  d :     0.030272
      dxz     :     0.006403
      dyz     :     0.004215
      dx2y2   :     0.006137
      dxy     :     0.007878

  3 C s       :     3.122875  s :     3.122875
      pz      :     1.030452  p :     3.063031
      px      :     1.031334
      py      :     1.001245
      dz2     :     0.008547  d :     0.030584
      dxz     :     0.003263
      dyz     :     0.004170
      dx2y2   :     0.007086
      dxy     :     0.007518

  4 C s       :     3.000551  s :     3.000551
      pz      :     1.019622  p :     2.971738
      px      :     0.988761
      py      :     0.963356
      dz2     :     0.004405  d :     0.028759
      dxz     :     0.007401
      dyz     :     0.004630
      dx2y2   :     0.004688
      dxy     :     0.007635

  5 H s       :     0.950862  s :     0.950862
      pz      :     0.006025  p :     0.022925
      px      :     0.006646
      py      :     0.010254

  6 H s       :     0.954394  s :     0.954394
      pz      :     0.012719  p :     0.023565
      px      :     0.005963
      py      :     0.004882

  7 H s       :     0.943328  s :     0.943328
      pz      :     0.008280  p :     0.022891
      px      :     0.010164
      py      :     0.004448

  8 H s       :     0.927658  s :     0.927658
      pz      :     0.013183  p :     0.022451
      px      :     0.004948
      py      :     0.004319

  9 H s       :     0.938581  s :     0.938581
      pz      :     0.007641  p :     0.021969
      px      :     0.010277
      py      :     0.004052

 10 C s       :     3.009412  s :     3.009412
      pz      :     0.994389  p :     2.976462
      px      :     1.000443
      py      :     0.981631
      dz2     :     0.008868  d :     0.028852
      dxz     :     0.002584
      dyz     :     0.004190
      dx2y2   :     0.008885
      dxy     :     0.004326

 11 H s       :     0.940287  s :     0.940287
      pz      :     0.004465  p :     0.022825
      px      :     0.014201
      py      :     0.004159

 12 H s       :     0.944405  s :     0.944405
      pz      :     0.005728  p :     0.023387
      px      :     0.005154
      py      :     0.012504

 13 H s       :     0.949493  s :     0.949493
      pz      :     0.014069  p :     0.023014
      px      :     0.004681
      py      :     0.004264

 14 H s       :     0.939899  s :     0.939899
      pz      :     0.003975  p :     0.021829
      px      :     0.013867
      py      :     0.003987

 15 H s       :     0.921941  s :     0.921941
      pz      :     0.005751  p :     0.022428
      px      :     0.004895
      py      :     0.011782

 16 C s       :     3.006893  s :     3.006893
      pz      :     1.009710  p :     2.975141
      px      :     1.011891
      py      :     0.953540
      dz2     :     0.008363  d :     0.028687
      dxz     :     0.003349
      dyz     :     0.003869
      dx2y2   :     0.005384
      dxy     :     0.007721

 17 H s       :     0.950478  s :     0.950478
      pz      :     0.014455  p :     0.023128
      px      :     0.004754
      py      :     0.003919

 18 H s       :     0.948424  s :     0.948424
      pz      :     0.005228  p :     0.022952
      px      :     0.009632
      py      :     0.008093

 19 H s       :     0.941116  s :     0.941116
      pz      :     0.006321  p :     0.022823
      px      :     0.011992
      py      :     0.004509

 20 H s       :     0.929926  s :     0.929926
      pz      :     0.014265  p :     0.022238
      px      :     0.004180
      py      :     0.003793

 21 H s       :     0.939920  s :     0.939920
      pz      :     0.005931  p :     0.021904
      px      :     0.011593
      py      :     0.004380



                     *******************************
                     * LOEWDIN POPULATION ANALYSIS *
                     *******************************

----------------------
LOEWDIN ATOMIC CHARGES
----------------------
   0 P :    0.441778
   1 C :   -0.184689
   2 C :   -0.187120
   3 C :   -0.185513
   4 C :   -0.070899
   5 H :    0.023165
   6 H :    0.017769
   7 H :    0.025199
   8 H :    0.026259
   9 H :    0.016861
  10 C :   -0.068575
  11 H :    0.025464
  12 H :    0.019487
  13 H :    0.025353
  14 H :    0.016012
  15 H :    0.022895
  16 C :   -0.070119
  17 H :    0.019279
  18 H :    0.024452
  19 H :    0.025146
  20 H :    0.021911
  21 H :    0.015888

-------------------------------
LOEWDIN REDUCED ORBITAL CHARGES
-------------------------------
  0 P s       :     5.323535  s :     5.323535
      pz      :     2.855563  p :     9.018834
      px      :     3.352144
      py      :     2.811128
      dz2     :     0.068407  d :     0.215853
      dxz     :     0.026294
      dyz     :     0.032936
      dx2y2   :     0.023256
      dxy     :     0.064960

  1 C s       :     2.895961  s :     2.895961
      pz      :     1.087480  p :     3.215401
      px      :     1.067753
      py      :     1.060167
      dz2     :     0.017987  d :     0.073327
      dxz     :     0.009308
      dyz     :     0.013524
      dx2y2   :     0.021321
      dxy     :     0.011187

  2 C s       :     2.895597  s :     2.895597
      pz      :     1.074314  p :     3.218727
      px      :     1.072484
      py      :     1.071929
      dz2     :     0.014494  d :     0.072796
      dxz     :     0.016009
      dyz     :     0.009026
      dx2y2   :     0.012946
      dxy     :     0.020322

  3 C s       :     2.895737  s :     2.895737
      pz      :     1.069957  p :     3.216195
      px      :     1.086929
      py      :     1.059308
      dz2     :     0.021662  d :     0.073582
      dxz     :     0.008129
      dyz     :     0.009071
      dx2y2   :     0.017086
      dxy     :     0.017634

  4 C s       :     2.843330  s :     2.843330
      pz      :     1.065022  p :     3.154406
      px      :     1.048872
      py      :     1.040512
      dz2     :     0.011883  d :     0.073163
      dxz     :     0.018544
      dyz     :     0.011003
      dx2y2   :     0.011256
      dxy     :     0.020477

  5 H s       :     0.913976  s :     0.913976
      pz      :     0.015693  p :     0.062859
      px      :     0.018385
      py      :     0.028780

  6 H s       :     0.917450  s :     0.917450
      pz      :     0.034367  p :     0.064781
      px      :     0.016175
      py      :     0.014239

  7 H s       :     0.911900  s :     0.911900
      pz      :     0.021935  p :     0.062901
      px      :     0.028031
      py      :     0.012935

  8 H s       :     0.907108  s :     0.907108
      pz      :     0.036614  p :     0.066633
      px      :     0.015377
      py      :     0.014642

  9 H s       :     0.915990  s :     0.915990
      pz      :     0.020601  p :     0.067149
      px      :     0.031266
      py      :     0.015283

 10 C s       :     2.841354  s :     2.841354
      pz      :     1.056591  p :     3.153746
      px      :     1.054190
      py      :     1.042964
      dz2     :     0.022701  d :     0.073476
      dxz     :     0.006444
      dyz     :     0.011106
      dx2y2   :     0.021934
      dxy     :     0.011291

 11 H s       :     0.911491  s :     0.911491
      pz      :     0.012213  p :     0.063045
      px      :     0.038878
      py      :     0.011953

 12 H s       :     0.916091  s :     0.916091
      pz      :     0.015395  p :     0.064421
      px      :     0.014202
      py      :     0.034825

 13 H s       :     0.911824  s :     0.911824
      pz      :     0.038014  p :     0.062823
      px      :     0.012715
      py      :     0.012094

 14 H s       :     0.917095  s :     0.917095
      pz      :     0.015065  p :     0.066893
      px      :     0.039205
      py      :     0.012623

 15 H s       :     0.909813  s :     0.909813
      pz      :     0.019918  p :     0.067292
      px      :     0.013875
      py      :     0.033500

 16 C s       :     2.843212  s :     2.843212
      pz      :     1.058782  p :     3.153916
      px      :     1.062737
      py      :     1.032397
      dz2     :     0.021690  d :     0.072991
      dxz     :     0.008540
      dyz     :     0.009014
      dx2y2   :     0.014595
      dxy     :     0.019153

 17 H s       :     0.917198  s :     0.917198
      pz      :     0.039106  p :     0.063523
      px      :     0.012166
      py      :     0.012251

 18 H s       :     0.912621  s :     0.912621
      pz      :     0.013675  p :     0.062928
      px      :     0.025933
      py      :     0.023321

 19 H s       :     0.911890  s :     0.911890
      pz      :     0.016790  p :     0.062964
      px      :     0.032317
      py      :     0.013858

 20 H s       :     0.911626  s :     0.911626
      pz      :     0.039627  p :     0.066463
      px      :     0.013324
      py      :     0.013512

 21 H s       :     0.917182  s :     0.917182
      pz      :     0.016567  p :     0.066930
      px      :     0.035360
      py      :     0.015004



                      *****************************
                      * MAYER POPULATION ANALYSIS *
                      *****************************

  NA   - Mulliken gross atomic population
  ZA   - Total nuclear charge
  QA   - Mulliken gross atomic charge
  VA   - Mayer's total valence
  BVA  - Mayer's bonded valence
  FA   - Mayer's free valence

  ATOM       NA         ZA         QA         VA         BVA        FA
  0 P     14.8487    15.0000     0.1513     2.9864     2.9864    -0.0000
  1 C      6.2263     6.0000    -0.2263     3.9496     3.9496     0.0000
  2 C      6.2210     6.0000    -0.2210     3.9338     3.9338     0.0000
  3 C      6.2165     6.0000    -0.2165     3.9468     3.9468     0.0000
  4 C      6.0010     6.0000    -0.0010     3.9636     3.9636    -0.0000
  5 H      0.9738     1.0000     0.0262     0.9848     0.9848     0.0000
  6 H      0.9780     1.0000     0.0220     1.0010     1.0010     0.0000
  7 H      0.9662     1.0000     0.0338     0.9909     0.9909     0.0000
  8 H      0.9501     1.0000     0.0499     0.9772     0.9772    -0.0000
  9 H      0.9606     1.0000     0.0394     0.9814     0.9814     0.0000
 10 C      6.0147     6.0000    -0.0147     3.9795     3.9795     0.0000
 11 H      0.9631     1.0000     0.0369     0.9895     0.9895     0.0000
 12 H      0.9678     1.0000     0.0322     0.9919     0.9919    -0.0000
 13 H      0.9725     1.0000     0.0275     0.9853     0.9853     0.0000
 14 H      0.9617     1.0000     0.0383     0.9790     0.9790     0.0000
 15 H      0.9444     1.0000     0.0556     0.9762     0.9762     0.0000
 16 C      6.0107     6.0000    -0.0107     3.9684     3.9684     0.0000
 17 H      0.9736     1.0000     0.0264     0.9949     0.9949     0.0000
 18 H      0.9714     1.0000     0.0286     0.9855     0.9855    -0.0000
 19 H      0.9639     1.0000     0.0361     0.9891     0.9891     0.0000
 20 H      0.9522     1.0000     0.0478     0.9757     0.9757     0.0000
 21 H      0.9618     1.0000     0.0382     0.9784     0.9784    -0.0000

  Mayer bond orders larger than 0.100000
B(  0-P ,  1-C ) :   0.9718 B(  0-P ,  2-C ) :   0.9660 B(  0-P ,  3-C ) :   0.9781 
B(  1-C , 10-C ) :   1.0654 B(  1-C , 14-H ) :   0.9437 B(  1-C , 15-H ) :   0.9533 
B(  2-C ,  4-C ) :   1.0549 B(  2-C ,  8-H ) :   0.9562 B(  2-C ,  9-H ) :   0.9442 
B(  3-C , 16-C ) :   1.0574 B(  3-C , 20-H ) :   0.9564 B(  3-C , 21-H ) :   0.9456 
B(  4-C ,  5-H ) :   0.9724 B(  4-C ,  6-H ) :   0.9755 B(  4-C ,  7-H ) :   0.9755 
B( 10-C , 11-H ) :   0.9745 B( 10-C , 12-H ) :   0.9755 B( 10-C , 13-H ) :   0.9709 
B( 16-C , 17-H ) :   0.9777 B( 16-C , 18-H ) :   0.9728 B( 16-C , 19-H ) :   0.9747 


-------
TIMINGS
-------

Total SCF time: 0 days 0 hours 0 min 5 sec 

Total time                  ....       5.715 sec
Sum of individual times     ....       5.383 sec  ( 94.2%)

SCF preparation             ....       0.356 sec  (  6.2%)
Fock matrix formation       ....       4.737 sec  ( 82.9%)
  Startup                   ....       0.016 sec  (  0.3% of F)
  Split-RI-J                ....       0.216 sec  (  4.6% of F)
  Chain of spheres X        ....       3.451 sec  ( 72.8% of F)
  XC integration            ....       0.934 sec  ( 19.7% of F)
    Basis function eval.    ....       0.124 sec  ( 13.3% of XC)
    Density eval.           ....       0.070 sec  (  7.5% of XC)
    XC-Functional eval.     ....       0.071 sec  (  7.6% of XC)
    XC-Potential eval.      ....       0.076 sec  (  8.1% of XC)
Diagonalization             ....       0.000 sec  (  0.0%)
Density matrix formation    ....       0.064 sec  (  1.1%)
Total Energy calculation    ....       0.027 sec  (  0.5%)
Population analysis         ....       0.022 sec  (  0.4%)
Orbital Transformation      ....       0.023 sec  (  0.4%)
Orbital Orthonormalization  ....       0.000 sec  (  0.0%)
DIIS solution               ....       0.082 sec  (  1.4%)
SOSCF solution              ....       0.073 sec  (  1.3%)
Finished LeanSCF after   5.8 sec

Maximum memory used throughout the entire LEANSCF-calculation: 16.2 MB
------------------------------------------------------------------------------
                           ORCA ORBITAL LOCALIZATION
------------------------------------------------------------------------------

Input orbitals are from                  ... TPhP_pet3_opt.gbw
Output orbitals are to                   ... TPhP_pet3_opt.loc
Max. number of iterations                ... 128
Localizations seeded randomly            ... on
Convergence tolerance                    ... 1.000e-06
Threshold for strong local MOs           ... 9.500e-01
Threshold for bond MOs                   ... 8.500e-01
Operator                                 ... 0
Orbital range for localization           ... 8 to 32
Localization criterion                   ... NEW-BOYS
Doing the dipole integrals               ... o.k.
Initial value of the localization sum :   386.340996
ITERATION   0 : L=  451.1266466230 DL=  6.48e+01 (AVERGE_DL)=    0.4647065416 
ITERATION   1 : L=  455.9549841293 DL=  4.83e+00 (AVERGE_DL)=    0.1268639364 
ITERATION   2 : L=  455.9788536162 DL=  2.39e-02 (AVERGE_DL)=    0.0089199191 
ITERATION   3 : L=  455.9788862708 DL=  3.27e-05 (AVERGE_DL)=    0.0003299220 
ITERATION   4 : L=  455.9788863180 DL=  4.72e-08 (AVERGE_DL)=    0.0000125462 
LOCALIZATION SUM CONVERGED


--------------------------------------------------------------------------------
                    LOCALIZED MOLECULAR ORBITAL COMPOSITIONS
--------------------------------------------------------------------------------

The Mulliken populations for each LMO on each atom are computed
The LMO`s will be ordered according to atom index and type
  (A) Strongly localized MO`s have populations of >=0.950 on one atom
  (B) Two center bond orbitals have populations of >=0.850 on two atoms
  (C) Other MO`s are considered to be `delocalized`

FOUND  -   4 strongly local MO`s
       -  21 two center bond MO`s
       -   0 significantly delocalized MO`s

Rather strongly localized orbitals:
MO  11:   0P  -   1.029266
MO  10:   0P  -   1.000511
MO   9:   0P  -   1.000465
MO   8:   0P  -   0.999656
Bond-like localized orbitals:
MO  32:  21H  -   0.497651  and   3C  -   0.501904
MO  31:  20H  -   0.493872  and   3C  -   0.508777
MO  30:  19H  -   0.495098  and  16C  -   0.514198
MO  29:  18H  -   0.500169  and  16C  -   0.504471
MO  28:  17H  -   0.498327  and  16C  -   0.512152
MO  27:  16C  -   0.494395  and   3C  -   0.537637
MO  26:  15H  -   0.489408  and   1C  -   0.512812
MO  25:  14H  -   0.497676  and   1C  -   0.500854
MO  24:  13H  -   0.500846  and  10C  -   0.502729
MO  23:  12H  -   0.496438  and  10C  -   0.513309
MO  22:  11H  -   0.494291  and  10C  -   0.515206
MO  21:  10C  -   0.492396  and   1C  -   0.538006
MO  20:   9H  -   0.495647  and   2C  -   0.500850
MO  19:   8H  -   0.492328  and   2C  -   0.510409
MO  18:   7H  -   0.495859  and   4C  -   0.513561
MO  17:   6H  -   0.498350  and   4C  -   0.510850
MO  16:   5H  -   0.501815  and   4C  -   0.503617
MO  15:   4C  -   0.493704  and   2C  -   0.539179
MO  14:   3C  -   0.589280  and   0P  -   0.464582
MO  13:   2C  -   0.592503  and   0P  -   0.458692
MO  12:   1C  -   0.589494  and   0P  -   0.460339
Localized MO's were stored in: TPhP_pet3_opt.loc


-------------------------------------------------------------------------------
                          DFT DISPERSION CORRECTION                            
                                                                               
                                DFTD4 V3.4.0                                   
-------------------------------------------------------------------------------
The WB97X-D3BJ functional is recognized
Active option DFTDOPT                   ...         5   

-------------------------   ----------------
Dispersion correction           -0.037450588
-------------------------   ----------------


-------------------------   --------------------
FINAL SINGLE POINT ENERGY      -578.922331071446
-------------------------   --------------------



           ************************************************************
           *        Program running with 32 parallel MPI-processes    *
           *              working on a common directory               *
           ************************************************************
------------------------------------------------------------------------------
                         ORCA SCF GRADIENT CALCULATION
------------------------------------------------------------------------------

Nuc. rep. gradient        (SHARK) ... done (  0.0 sec)
HCore & Overlap gradient  (SHARK) ... done (  0.0 sec)
Split-RIJ-J gradient      (SHARK) ... done (  0.1 sec)
COSX-gradient                     ... done (  1.3 sec)
XC gradient                       ... done (  0.3 sec)
Dispersion correction             ... done (  0.0 sec)

-------------------
DISPERSION GRADIENT
-------------------

   1   P   :    0.000822719    0.000628062    0.000937125
   2   C   :    0.000108062    0.000019431   -0.001152381
   3   C   :   -0.000339028   -0.000757063    0.000762744
   4   C   :   -0.000494405    0.000723600    0.000490239
   5   C   :    0.000161880   -0.001195308    0.000621838
   6   H   :    0.000007578   -0.000170861    0.000069601
   7   H   :    0.000080684   -0.000340974    0.000119495
   8   H   :    0.000112180   -0.000219929    0.000146401
   9   H   :   -0.000083260   -0.000168248    0.000192455
  10   H   :   -0.000220109   -0.000246373    0.000116538
  11   C   :    0.000372669   -0.000366843   -0.001335350
  12   H   :    0.000174574   -0.000071478   -0.000247100
  13   H   :    0.000074239   -0.000155518   -0.000344583
  14   H   :    0.000037734   -0.000060744   -0.000167304
  15   H   :   -0.000126837   -0.000032587   -0.000322571
  16   H   :    0.000066949    0.000022053   -0.000290827
  17   C   :   -0.000283088    0.001259650    0.000143627
  18   H   :   -0.000057459    0.000340401   -0.000042493
  19   H   :   -0.000056746    0.000173670    0.000012677
  20   H   :    0.000024509    0.000280785    0.000050969
  21   H   :   -0.000116948    0.000166828    0.000171441
  22   H   :   -0.000265895    0.000171445    0.000067460

Difference to translation invariance:
           :    0.0000000000   -0.0000000000    0.0000000000

Difference to rotation invariance:
           :    0.0000000000   -0.0000000000    0.0000000000

Norm of the Dispersion gradient    ...    0.0035359763
RMS gradient                       ...    0.0004352486
MAX gradient                       ...    0.0013353505

------------------
CARTESIAN GRADIENT
------------------

   1   P   :    0.018617320   -0.002035187    0.002756052
   2   C   :   -0.000919291   -0.000529992   -0.004721473
   3   C   :   -0.005553978   -0.001016657    0.000753443
   4   C   :   -0.004649924   -0.000158562   -0.001988039
   5   C   :    0.000750448    0.006338499   -0.004739483
   6   H   :   -0.005345720   -0.001783520    0.002148063
   7   H   :   -0.000156212    0.000237125   -0.002582020
   8   H   :    0.003569892    0.003349031    0.004604057
   9   H   :    0.001806344   -0.003842934    0.006736961
  10   H   :   -0.002476428   -0.001579519   -0.003305635
  11   C   :   -0.001221047    0.001349459    0.006601459
  12   H   :    0.005258264    0.004511970    0.001445421
  13   H   :   -0.004286985   -0.001260417    0.001210773
  14   H   :   -0.003765010    0.001812970   -0.004601780
  15   H   :   -0.003437174   -0.003889349   -0.002379036
  16   H   :    0.004009515    0.001585435   -0.004576576
  17   C   :    0.002092994   -0.005301972   -0.001266603
  18   H   :   -0.000502157   -0.002475002   -0.004913763
  19   H   :   -0.005589054    0.000507942    0.003147282
  20   H   :    0.004882088   -0.000527102    0.004717476
  21   H   :    0.000713509    0.003726440    0.004708783
  22   H   :   -0.003797395    0.000981342   -0.003755362

Difference to translation invariance:
           :   -0.0000000000   -0.0000000000    0.0000000000

Difference to rotation invariance:
           :   -0.0000297309   -0.0000099753    0.0000270300

Norm of the Cartesian gradient     ...    0.0334947075
RMS gradient                       ...    0.0041229135
MAX gradient                       ...    0.0186173201

-------
TIMINGS
-------

Total SCF gradient time     ....        1.715 sec

Densities                   ....       0.001 sec  (  0.0%)
One electron gradient       ....       0.012 sec  (  0.7%)
RI-J Coulomb gradient       ....       0.088 sec  (  5.1%)
COSX gradient               ....       1.328 sec  ( 77.4%)
XC gradient                 ....       0.256 sec  ( 14.9%)

Maximum memory used throughout the entire SCFGRAD-calculation: 30.5 MB
------------------------------------------------------------------------------
                         ORCA GEOMETRY RELAXATION STEP
------------------------------------------------------------------------------

Reading the OPT-File                    .... done
Getting information on internals        .... done
Copying old internal coords+grads       .... done
Making the new internal coordinates     .... (2022 redundants) done
Validating the new internal coordinates .... (2022 redundants) done
Calculating the B-matrix                .... done
Calculating the G,G- and P matrices     .... done
Transforming gradient to internals      .... done
Projecting the internal gradient        .... done
Number of atoms                         ....  22
Number of internal coordinates          ....  93
Current Energy                          ....  -578.922331071 Eh
Current gradient norm                   ....     0.033494708 Eh/bohr
Maximum allowed component of the step   ....  0.300
Current trust radius                    ....  0.300
Evaluating the initial hessian          ....  (Almloef) done
Projecting the Hessian                  .... done
Forming the augmented Hessian           .... done
Diagonalizing the augmented Hessian     .... done
Last element of RFO vector              ....  0.988127605
Lowest eigenvalues of augmented Hessian:
 -0.004425166  0.010000000  0.010000000  0.010071435  0.011457810
Length of the computed step             ....  0.155481339
The final length of the internal step   ....  0.155481339
Converting the step to Cartesian space:
 Initial RMS(Int)=    0.0161226638
Transforming coordinates:
 Iter   0:  RMS(Cart)=    0.0383410715 RMS(Int)=    0.0160989914
done
Storing new coordinates                 .... done

                                .--------------------.
          ----------------------|Geometry convergence|-------------------------
          Item                value                   Tolerance       Converged
          ---------------------------------------------------------------------
          RMS gradient        0.0036400329            0.0001000000      NO
          MAX gradient        0.0088513020            0.0003000000      NO
          RMS step            0.0161226638            0.0020000000      NO
[...]

 11 H s       :     0.911366  s :     0.911366
      pz      :     0.013334  p :     0.064489
      px      :     0.039051
      py      :     0.012105

 12 H s       :     0.914961  s :     0.914961
      pz      :     0.014797  p :     0.064720
      px      :     0.015732
      py      :     0.034191

 13 H s       :     0.910954  s :     0.910954
      pz      :     0.039110  p :     0.064180
      px      :     0.012658
      py      :     0.012412

 14 H s       :     0.917553  s :     0.917553
      pz      :     0.016029  p :     0.068149
      px      :     0.039702
      py      :     0.012418

 15 H s       :     0.909906  s :     0.909906
      pz      :     0.019844  p :     0.068372
      px      :     0.014831
      py      :     0.033697

 16 C s       :     2.837075  s :     2.837075
      pz      :     1.061313  p :     3.156298
      px      :     1.067692
      py      :     1.027293
      dz2     :     0.022808  d :     0.072952
      dxz     :     0.006008
      dyz     :     0.010032
      dx2y2   :     0.015650
      dxy     :     0.018454

 17 H s       :     0.915330  s :     0.915330
      pz      :     0.039513  p :     0.064480
      px      :     0.012574
      py      :     0.012392

 18 H s       :     0.910947  s :     0.910947
      pz      :     0.015457  p :     0.064215
      px      :     0.024694
      py      :     0.024063

 19 H s       :     0.910846  s :     0.910846
      pz      :     0.014924  p :     0.064451
      px      :     0.035095
      py      :     0.014432

 20 H s       :     0.910031  s :     0.910031
      pz      :     0.040511  p :     0.067814
      px      :     0.013703
      py      :     0.013601

 21 H s       :     0.916892  s :     0.916892
      pz      :     0.015432  p :     0.068243
      px      :     0.037181
      py      :     0.015630



                      *****************************
                      * MAYER POPULATION ANALYSIS *
                      *****************************

  NA   - Mulliken gross atomic population
  ZA   - Total nuclear charge
  QA   - Mulliken gross atomic charge
  VA   - Mayer's total valence
  BVA  - Mayer's bonded valence
  FA   - Mayer's free valence

  ATOM       NA         ZA         QA         VA         BVA        FA
  0 P     14.8635    15.0000     0.1365     2.9980     2.9980     0.0000
  1 C      6.2129     6.0000    -0.2129     3.9486     3.9486     0.0000
  2 C      6.2145     6.0000    -0.2145     3.9319     3.9319    -0.0000
  3 C      6.2098     6.0000    -0.2098     3.9498     3.9498     0.0000
  4 C      5.9889     6.0000     0.0111     3.9671     3.9671     0.0000
  5 H      0.9754     1.0000     0.0246     0.9859     0.9859     0.0000
  6 H      0.9810     1.0000     0.0190     1.0011     1.0011     0.0000
  7 H      0.9698     1.0000     0.0302     0.9926     0.9926     0.0000
  8 H      0.9552     1.0000     0.0448     0.9798     0.9798     0.0000
  9 H      0.9636     1.0000     0.0364     0.9823     0.9823     0.0000
 10 C      6.0100     6.0000    -0.0100     3.9801     3.9801    -0.0000
 11 H      0.9666     1.0000     0.0334     0.9912     0.9912    -0.0000
 12 H      0.9690     1.0000     0.0310     0.9918     0.9918    -0.0000
 13 H      0.9729     1.0000     0.0271     0.9867     0.9867     0.0000
 14 H      0.9651     1.0000     0.0349     0.9790     0.9790     0.0000
 15 H      0.9476     1.0000     0.0524     0.9769     0.9769     0.0000
 16 C      6.0072     6.0000    -0.0072     3.9756     3.9756     0.0000
 17 H      0.9738     1.0000     0.0262     0.9939     0.9939     0.0000
 18 H      0.9721     1.0000     0.0279     0.9870     0.9870     0.0000
 19 H      0.9663     1.0000     0.0337     0.9905     0.9905     0.0000
 20 H      0.9512     1.0000     0.0488     0.9754     0.9754     0.0000
 21 H      0.9637     1.0000     0.0363     0.9775     0.9775     0.0000

  Mayer bond orders larger than 0.100000
B(  0-P ,  1-C ) :   0.9739 B(  0-P ,  2-C ) :   0.9614 B(  0-P ,  3-C ) :   0.9770 
B(  1-C , 10-C ) :   1.0640 B(  1-C , 14-H ) :   0.9413 B(  1-C , 15-H ) :   0.9533 
B(  2-C ,  4-C ) :   1.0558 B(  2-C ,  8-H ) :   0.9541 B(  2-C ,  9-H ) :   0.9419 
B(  3-C , 16-C ) :   1.0593 B(  3-C , 20-H ) :   0.9549 B(  3-C , 21-H ) :   0.9431 
B(  4-C ,  5-H ) :   0.9732 B(  4-C ,  6-H ) :   0.9753 B(  4-C ,  7-H ) :   0.9763 
B( 10-C , 11-H ) :   0.9738 B( 10-C , 12-H ) :   0.9756 B( 10-C , 13-H ) :   0.9725 
B( 16-C , 17-H ) :   0.9779 B( 16-C , 18-H ) :   0.9739 B( 16-C , 19-H ) :   0.9742 


-------
TIMINGS
-------

Total SCF time: 0 days 0 hours 0 min 3 sec 

Total time                  ....       3.339 sec
Sum of individual times     ....       2.863 sec  ( 85.7%)

SCF preparation             ....       0.352 sec  ( 10.5%)
Fock matrix formation       ....       2.361 sec  ( 70.7%)
  Startup                   ....       0.012 sec  (  0.5% of F)
  Split-RI-J                ....       0.095 sec  (  4.0% of F)
  Chain of spheres X        ....       2.040 sec  ( 86.4% of F)
  XC integration            ....       0.401 sec  ( 17.0% of F)
    Basis function eval.    ....       0.049 sec  ( 12.1% of XC)
    Density eval.           ....       0.028 sec  (  7.0% of XC)
    XC-Functional eval.     ....       0.029 sec  (  7.2% of XC)
    XC-Potential eval.      ....       0.029 sec  (  7.3% of XC)
Diagonalization             ....       0.000 sec  (  0.0%)
Density matrix formation    ....       0.021 sec  (  0.6%)
Total Energy calculation    ....       0.025 sec  (  0.7%)
Population analysis         ....       0.031 sec  (  0.9%)
Orbital Transformation      ....       0.021 sec  (  0.6%)
Orbital Orthonormalization  ....       0.000 sec  (  0.0%)
DIIS solution               ....       0.012 sec  (  0.4%)
SOSCF solution              ....       0.041 sec  (  1.2%)
Finished LeanSCF after   3.4 sec

Maximum memory used throughout the entire LEANSCF-calculation: 16.6 MB
------------------------------------------------------------------------------
                           ORCA ORBITAL LOCALIZATION
------------------------------------------------------------------------------

Input orbitals are from                  ... TPhP_pet3_opt.gbw
Output orbitals are to                   ... TPhP_pet3_opt.loc
Max. number of iterations                ... 128
Localizations seeded randomly            ... on
Convergence tolerance                    ... 1.000e-06
Threshold for strong local MOs           ... 9.500e-01
Threshold for bond MOs                   ... 8.500e-01
Operator                                 ... 0
Orbital range for localization           ... 8 to 32
Localization criterion                   ... NEW-BOYS
Doing the dipole integrals               ... o.k.
Initial value of the localization sum :   388.254652
ITERATION   0 : L=  453.8271625170 DL=  6.56e+01 (AVERGE_DL)=    0.4675200897 
ITERATION   1 : L=  458.5526075616 DL=  4.73e+00 (AVERGE_DL)=    0.1255049142 
ITERATION   2 : L=  458.5753420930 DL=  2.27e-02 (AVERGE_DL)=    0.0087052726 
ITERATION   3 : L=  458.5753803383 DL=  3.82e-05 (AVERGE_DL)=    0.0003570492 
ITERATION   4 : L=  458.5753804084 DL=  7.02e-08 (AVERGE_DL)=    0.0000152924 
LOCALIZATION SUM CONVERGED


--------------------------------------------------------------------------------
                    LOCALIZED MOLECULAR ORBITAL COMPOSITIONS
--------------------------------------------------------------------------------

The Mulliken populations for each LMO on each atom are computed
The LMO`s will be ordered according to atom index and type
  (A) Strongly localized MO`s have populations of >=0.950 on one atom
  (B) Two center bond orbitals have populations of >=0.850 on two atoms
  (C) Other MO`s are considered to be `delocalized`

FOUND  -   4 strongly local MO`s
       -  21 two center bond MO`s
       -   0 significantly delocalized MO`s

Rather strongly localized orbitals:
MO  11:   0P  -   1.033245
MO  10:   0P  -   1.000515
MO   9:   0P  -   1.000548
MO   8:   0P  -   0.999625
Bond-like localized orbitals:
MO  32:  21H  -   0.499123  and   3C  -   0.499544
MO  31:  20H  -   0.493535  and   3C  -   0.508138
MO  30:  19H  -   0.495751  and  16C  -   0.513135
MO  29:  18H  -   0.499899  and  16C  -   0.504559
MO  28:  17H  -   0.498983  and  16C  -   0.510956
MO  27:  16C  -   0.491638  and   3C  -   0.537632
MO  26:  15H  -   0.490976  and   1C  -   0.511135
MO  25:  14H  -   0.499529  and   1C  -   0.498110
MO  24:  13H  -   0.500426  and  10C  -   0.503177
MO  23:  12H  -   0.497252  and  10C  -   0.512233
MO  22:  11H  -   0.495607  and  10C  -   0.513629
MO  21:  10C  -   0.491322  and   1C  -   0.536864
MO  20:   9H  -   0.497308  and   2C  -   0.497754
MO  19:   8H  -   0.494138  and   2C  -   0.507245
MO  18:   7H  -   0.497183  and   4C  -   0.512075
MO  17:   6H  -   0.500098  and   4C  -   0.508483
MO  16:   5H  -   0.502213  and   4C  -   0.503131
MO  15:   4C  -   0.489889  and   2C  -   0.541123
MO  14:   3C  -   0.587207  and   0P  -   0.463670
MO  13:   2C  -   0.593292  and   0P  -   0.455776
MO  12:   1C  -   0.588942  and   0P  -   0.460094
Localized MO's were stored in: TPhP_pet3_opt.loc


-------------------------------------------------------------------------------
                          DFT DISPERSION CORRECTION                            
                                                                               
                                DFTD4 V3.4.0                                   
-------------------------------------------------------------------------------
The WB97X-D3BJ functional is recognized
Active option DFTDOPT                   ...         5   

-------------------------   ----------------
Dispersion correction           -0.037379869
-------------------------   ----------------


-------------------------   --------------------
FINAL SINGLE POINT ENERGY      -578.925679716307
-------------------------   --------------------

                                *** OPTIMIZATION RUN DONE ***



           ************************************************************
           *        Program running with 32 parallel MPI-processes    *
           *              working on a common directory               *
           ************************************************************

------------------------------------------------------------------------------
                              ORCA PROPERTY CALCULATIONS
------------------------------------------------------------------------------

GBWName                                 ... TPhP_pet3_opt.gbw
Number of atoms                         ...     22
Number of basis functions               ...    177
Max core memory                         ...   4096 MB

Electric properties:
Dipole moment                           ... YES
Quadrupole moment                       ...  NO
Static polarizability (Dipole/Dipole)   ...  NO
Static polarizability (Dipole/Quad.)    ...  NO
Static polarizability (Quad./Quad.)     ...  NO
Static polarizability (Velocity)        ...  NO
Static hyperpolarizability              ...  NO

Atomic electric properties:
Dipole moment                           ...  NO
Quadrupole moment                       ...  NO
Static polarizability                   ...  NO

Choice of electric origin               ... Center of mass
Position of electric origin             ...    -5.420071     7.823329     1.215673

General magnetic properties:
Magnetizability                         ...  NO

EPR properties:
g-Tensor (aka g-matrix)                 ...  NO
Zero-Field splitting spin-orbit         ...  NO
Zero-field splitting spin-spin          ...  NO
Hyperfine couplings                     ...  NO (   0 nuclei)
Quadrupole couplings                    ...  NO (   0 nuclei)
Contact density                         ...  NO (   0 nuclei)

NMR properties:
Chemical shifts                         ...  NO (   0 nuclei)
Spin-rotation constants                 ...  NO (   0 nuclei)
Spin-spin couplings                     ...  NO (   0 nuclei,    0 pairs)

Choice of magnetic origin               ... GIAO
Position of magnetic origin             ...     0.000000     0.000000     0.000000

Properties with geometric perturbations:
SCF Hessian                             ...  NO
IR spectrum                             ...  NO
VCD spectrum                            ...  NO
X-ray spectroscopy properties:
SCF XES/XAS/RIXS spectra                ...  NO

SCF SOC stabilization energy            ...  NO
Diagonal Born-Oppenheimer correction    ...  NO

-------------
DIPOLE MOMENT
-------------

Method             : SCF
Type of density    : Electron Density
Multiplicity       :   1
Irrep              :   0
Energy             :  -578.8882998470049870 Eh
Basis              : AO
                                X                 Y                 Z
Electronic contribution:      2.144113920       1.715306895       2.401226251
Nuclear contribution   :     -2.606845565      -1.774332239      -2.548032224
                        -----------------------------------------
Total Dipole Moment    :     -0.462731645      -0.059025345      -0.146805973
                        -----------------------------------------
Magnitude (a.u.)       :      0.489036359
Magnitude (Debye)      :      1.243031640



--------------------
Rotational spectrum 
--------------------
 
Rotational constants in cm-1:             0.086477             0.048283             0.034152 
Rotational constants in MHz :          2592.523379          1447.501080          1023.859424 

Dipole components along the rotational axes: 
x,y,z [a.u.] :     0.044365    -0.032886    -0.485908 
x,y,z [Debye]:     0.112766    -0.083588    -1.235081 

 

Dipole moment calculation done in   0.0 sec 

Maximum memory used throughout the entire PROP-calculation: 9.0 MB

--------------------------------
SUGGESTED CITATIONS FOR THIS RUN
--------------------------------

Below you find a list of papers that are relevant to this ORCA run
We neither can nor want to force you to cite these papers, but we appreciate if you do
You receive ORCA, which is the product of decades of hard work by many enthusiastic individuals, for free
The only thing we kindly ask in return is that you cite our papers,
We deeply appreciate it, if you show your appreciation for ORCA by not just citing the generic ORCA reference.

Please note that relegating all ORCA citations to the supporting information does *not* help us.
SI sections are not indexed - citations you put there will not count into any citation statistics
But we need these citations in order to attract the funding resources that allow us to do what we are doing

Therefore, if you are a happy ORCA user, please consider citing a few of the papers listed below in the main body of your paper

In addition to the list printed below, the program has created the file TPhP_pet3_opt.bibtex that contains the list in bibtex format
You can import this file easily into all common literature databanks and citation aid programs

It goes without saying that in many instances, there are alternative algorithms to achieve similar
results as the ones you have gotten from ORCA. It is, of course, also the case that in some instances
ORCA just re-implements algorithms worked out by others. We are fully aware of that and we are also
fully appreciative of our colleagues work. Hence this citation list should not be read as indicating
that the listed papers, which are focused on our own work, are the only ones worth citing. It simply
meant to make it easier for users to cite ORCA specific papers. It is not a substitute for doing your
own literature research and citing the relevant literature in a scientifically appropriate manner.

List of essential papers. We consider these as the minimum necessary citations

  1. Neese, F.
     Software update: the ORCA program system, version 6.0
     WIRES Comput. Molec. Sci. 2025 15(1), e70019
     doi.org/10.1002/wcms.70019

List of papers to cite with high priority. The work reported in these papers was absolutely
necessary for this run to complete.
Our perspective: the developers of density functionals and basis sets usually get cited in chemistry papers
Good! But without the algorithms to do something with them, the functionals or basis sets would not do anything.
Hence, in our opinion, the algorithm design and method developments papers are equally worthy of getting cited

  1. Neese, F.
     An improvement of the resolution of the identity approximation for the formation of the Coulomb matrix
     J. Comp. Chem. 2003 24(14), 1740-1747
     doi.org/10.1002/jcc.10318
  2. Neese, F.; Wennmohs, F.; Hansen, A.; Becker, U.
     Efficient, approximate and parallel Hartree-Fock and hybrid DFT calculations. A 'chain-of-spheres' algorithm for the Hartree-Fock exchange
     Chem. Phys. 2009 356(1-3), 98-109
     doi.org/10.1016/j.chemphys.2008.10.036
  3. Caldeweyher, E.; Bannwarth, C.; Grimme, S.
     Extension of the D3 dispersion coefficient model
     J. Chem. Phys. 2017 147 , 034112
     doi.org/10.1063/1.4993215
  4. Caldeweyher, E.; Ehlert, S.; Hansen, A.; Neugebauer, H.; Spicher, S.; Bannwarth, C.; Grimme, S.
     A generally applicable atomic-charge dependent London dispersion correction
     J. Chem. Phys. 2019 150 , 154122
     doi.org/10.1063/1.5090222
  5. Helmich-Paris, B.; de Souza, B.; Neese, F.; Izsák, R.
     An improved chain of spheres for exchange algorithm
     J. Chem. Phys. 2021 155(10), 104109
     doi.org/10.1063/5.0058766
  6. Neese, F.
     The SHARK Integral Generation and Digestion System
     J. Comp. Chem. 2022 44(3), 381
     doi.org/10.1002/jcc.26942

List of suggested additional citations. These are papers that are important in the 'surrounding' of 
of this run, or papers that preceded the highly important papers. If you like your results we are grateful for a citation.

  1. Izsak, R.; Neese, F.
     An overlap fitted chain of spheres exchange method
     J. Chem. Phys. 2011 135 , 144105
     doi.org/10.1063/1.3646921
  2. Izsak, R.; Hansen, A.; Neese, F.
     The resolution of identity and chain of spheres approximations for the LPNO-CCSD singles Fock term
     Molec. Phys. 2012 110 , 2413-2417
     doi.org/10.1080/00268976.2012.687466
  3. Neese, F.
     The ORCA program system
     WIRES Comput. Molec. Sci. 2012 2(1), 73-78
     doi.org/10.1002/wcms.81
  4. Izsak, R.; Neese, F.; Klopper, W.
     Robust fitting techniques in the chain of spheres approximation to the Fock exchange: The role of the complementary space
     J. Chem. Phys. 2013 139 , 
     doi.org/10.1063/1.4819264
  5. Neese, F.
     Software update: the ORCA program system, version 4.0
     WIRES Comput. Molec. Sci. 2018 8(1), 1-6
     doi.org/10.1002/wcms.1327
  6. Neese, F.; Wennmohs, F.; Becker, U.; Riplinger, C.
     The ORCA quantum chemistry program package
     J. Chem. Phys. 2020 152(22), 224108
     doi.org/10.1063/5.0004608
  7. Neese, F.
     Software update: The ORCA program system—Version 5.0
     WIRES Comput. Molec. Sci. 2022 12(1), e1606
     doi.org/10.1002/wcms.1606

List of optional additional citations

  1. Neese, F.
     Approximate second-order SCF convergence for spin unrestricted wavefunctions
     Chem. Phys. Lett. 2000 325(1-3), 93-98
     doi.org/10.1016/s0009-2614(00)00662-x

Timings for individual modules:

Sum of individual times          ...       92.087 sec (=   1.535 min)
Startup calculation              ...       23.633 sec (=   0.394 min)  25.7 %
SCF iterations                   ...       49.469 sec (=   0.824 min)  53.7 %
Property calculations            ...        0.640 sec (=   0.011 min)   0.7 %
SCF Gradient evaluation          ...       18.250 sec (=   0.304 min)  19.8 %
Geometry relaxation              ...        0.052 sec (=   0.001 min)   0.1 %
Orbital localization             ...        0.043 sec (=   0.001 min)   0.0 %
                             ****ORCA TERMINATED NORMALLY****
TOTAL RUN TIME: 0 days 0 hours 1 minutes 46 seconds 533 msec
