
                                 *****************
                                 * O   R   C   A *
                                 *****************

                                            #,                                       
                                            ###                                      
                                            ####                                     
                                            #####                                    
                                            ######                                   
                                           ########,                                 
                                     ,,################,,,,,                         
                               ,,#################################,,                 
                          ,,##########################################,,             
                       ,#########################################, ''#####,          
                    ,#############################################,,   '####,        
                  ,##################################################,,,,####,       
                ,###########''''           ''''###############################       
              ,#####''   ,,,,##########,,,,          '''####'''          '####       
            ,##' ,,,,###########################,,,                        '##       
           ' ,,###''''                  '''############,,,                           
         ,,##''                                '''############,,,,        ,,,,,,###''
      ,#''                                            '''#######################'''  
     '                                                          ''''####''''         
             ,#######,   #######,   ,#######,      ##                                
            ,#'     '#,  ##    ##  ,#'     '#,    #''#        ,####,    ,#,          
            ##       ##  ##   ,#'  ##            #'  '#       #'       ,# #          
            ##       ##  #######   ##           ,######,      #####,      #          
            '#,     ,#'  ##    ##  '#,     ,#' ,#      #,     #,   #      #          
             '#######'   ##     ##  '#######'  #'      '#     '####' #    #          



                #########################################################
                #                        -***-                          #
                #          Department of theory and spectroscopy        #
                #                                                       #
                #                      Frank Neese                      #
                #                                                       #
                #     Directorship, Architecture, Infrastructure        #
                #                    SHARK, DRIVERS                     #
                #        Core code/Algorithms in most modules           #
                #                                                       #
                #        Max Planck Institute fuer Kohlenforschung      #
                #                Kaiser Wilhelm Platz 1                 #
                #                 D-45470 Muelheim/Ruhr                 #
                #                      Germany                          #
                #                                                       #
                #                  All rights reserved                  #
                #                        -***-                          #
                #########################################################


                         Program Version 6.1.1  -  RELEASE   -
                                (GIT: $487d211c$)
                          ($2025-11-21 10:33:24 +0100$)


 With contributions from (in alphabetic order):
[Max-Planck-Institut fuer Kohlenforschung]                               
  Daniel Aravena         : Magnetic Suceptibility                        
  Michael Atanasov       : Ab Initio Ligand Field Theory (pilot matlab implementation)
  Alexander A. Auer      : GIAO ZORA, VPT2 properties, NMR spectrum      
  Ute Becker             : All parallelization in ORCA, NUMFREQ, NUMCALC 
  Giovanni Bistoni       : ED, misc. LED, open-shell LED, HFLD           
  Dmytro Bykov           : pre 5.0 version of the SCF Hessian            
  Marcos Casanova-Páez   : Triplet and SCS-CIS(D). UHF-(DLPNO)-IP/EA/STEOM-CCSD. UHF-CVS-IP/STEOM-CCSD   
  Vijay G. Chilkuri      : MRCI spin determinant printing, contributions to CSF-ICE 
  Pauline Colinet        : FMM embedding                                 
  Dipayan Datta          : RHF DLPNO-CCSD density                        
  Achintya Kumar Dutta   : EOM-CC, STEOM-CC                              
  Nicolas Foglia         : Exact transition moments, OPA infrastructure, MCD improvements    
  Dmitry Ganyushin       : Spin-Orbit,Spin-Spin,Magnetic field MRCI      
  Miquel Garcia-Rates    : C-PCM and meta-GGA Hessian, CCSD/C-PCM, Gaussian charge scheme 
  Tiago L. C. Gouveia    : GS-ROHF, GS-ROCIS                             
  Yang Guo               : DLPNO-NEVPT2, F12-NEVPT2, CIM, IAO-localization        
  Andreas Hansen         : Spin unrestricted coupled pair/coupled cluster methods 
  Ingolf Harden          : AUTO-CI MPn and infrastructure                
  Benjamin Helmich-Paris : MC-RPA, TRAH-(SCF,CASSCF), AVAS, COSX integrals, SCF dyn. polar., MC-PDFT, srDFT 
  Lee Huntington         : MR-EOM, pCC                                   
  Robert Izsak           : Overlap fitted RIJCOSX, COSX-SCS-MP3, EOM     
  Riya Kayal             : Wick's Theorem for AUTO-CI, AUTO-CI UHF-CCSDT 
  Emily Kempfer          : AUTO-CI RHF CISDT and CCSDT, approximate NEVPT4
  Christian Kollmar      : KDIIS, OOCD, Brueckner-CCSD(T), CCSD density, CASPT2, CASPT2-K, improved NEVPT2 
  Axel Koslowski         : Symmetry handling                             
  Simone Kossmann        : meta-GGA functionals, TD-DFT gradient, OOMP2, (MP2 Hessian; deprecated post 5.0) 
  Lucas Lang             : DCDCAS, Hyperfine gauge corrections, ICE-SOC+SSC
  Marvin Lechner         : AUTO-CI (C++ implementation), FIC-MRCC        
  Spencer Leger          : CASSCF response                               
  Dagmar Lenk            : GEPOL surface, SMD, ORCA-2-JSON               
  Dimitrios Liakos       : Extrapolation schemes; Compound Job, Property file
  Dimitrios Manganas     : Further ROCIS development; embedding schemes. LFT, Crystal Embedding 
  Dimitrios Pantazis     : SARC Basis sets                               
  Anastasios Papadopoulos: AUTO-CI, single reference methods and gradients 
  Taras Petrenko         : pre 6.0 DFT Hessian and TD-DFT gradient,  ECA, NRVS 
  Petra Pikulova         : Analytic Raman intensities                    
  Peter Pinski           : DLPNO-MP2, DLPNO-MP2 Gradient                 
  Shashank Vittal Rao    : ES-AILFT, MagRelax                            
  Christoph Reimann      : Effective Core Potentials                     
  Marius Retegan         : Local ZFS, SOC                                
  Christoph Riplinger    : Optimizer, TS searches, QM/MM, DLPNO-CCSD(T), (RO)-DLPNO pert. Triples 
  Michael Roemelt        : Original ROCIS implementation, recursive CI coupling coefficients
  Masaaki Saitow         : Open-shell DLPNO-CCSD energy and density      
  Barbara Sandhoefer     : DKH picture change effects                    
  Yorick L. A. Schmerwitz: GMF and freeze-and-release deltaSCF, NEB S-IDPP initial path                    
  Kantharuban Sivalingam : CASSCF convergence/infrastructure, NEVPT2, NEVPT3, NEVPT4(SD), FIC-MRCI and CEPA variants
  Bernardo de Souza      : ESD, SOC TD-DFT                               
  Georgi L. Stoychev     : AutoAux, RI-MP2 NMR, DLPNO-MP2 response, X2C  
  Van Anh Tran           : RI-MP2 g-tensors                              
  Willem Van den Heuvel  : Paramagnetic NMR                              
  Zikuan Wang            : NOTCH, Electric field optimization            
  Frank Wennmohs         : Technical directorship and infrastructure     
  Hang Xu                : AUTO-CI-Response properties                   
                                                                         
[FACCTs GmbH]                                                            
  Markus Bursch, Nicolas Foglia, Miquel Garcia-Rates, Ingolf Harden, Hagen Neugebauer, Anastasios Papadopoulos, 
  Christoph Riplinger, Bernardo de Souza, Georgi L. Stoychev                                                    
                                                                 
  APM, various basis sets, CI-OPT, improved COSX, DLPNO-Multilevel,           
  DOCKER, DRACO, updates on ESD, Fragmentator, GOAT, IRC, LR-CPCM, L-BFGS, MBIS, meta-GGA TD-DFT gradient, ML-optimized integration grids, 
  MM, NACMEs, nearIR, NEB, NEB-TS, NL-DFT gradient (VV10), 2- and 3-layer-ONIOM, interface openCOSMO-RS, QMMM,   
  Crystal-QMMM, RESP, rigid body optimization, SF, symmetry and pop. for TD-DFT, various functionals, SOLVATOR                                   
                                                                         
[Other institutions]                                                     
  V. Asgeirsson          : NEB                                           
  Christoph Bannwarth    : sTDA-DFT, sTD-DFT, PBEh-3c, B97-3c, D3        
  Giovanni Bistoni       : ETS/NOCV, ADLD/ADEX, COVALED                  
  Martin Brehm           : Molecular dynamics                            
  Ronald Cardenas        : ETS/NOCV                                      
  Martina Colucci        : COVALED                                       
  Sebastian Ehlert       : rSCAN, r2SCAN, r2SCAN-3c, D4, dhf basis sets  
  Marvin Friede          : D4 for Fr, Ra, Ac-Lr                          
  Lars Goerigk           : TD-DFT with DH, B97 family of functionals     
  Stefan Grimme          : VdW corrections, initial TS optimization, DFT functionals, gCP, sTDA/sTD-DF 
  Waldemar Hujo          : DFT-NL                                        
  H. Jonsson             : NEB                                           
  Holger Kruse           : gCP                                           
  Marcel Mueller         : wB97X-3c, vDZP basis set                      
  Hagen Neugebauer       : wr2SCAN, Native XTB                           
  Gianluca Regni         : ADLD/ADEX                                     
  Tobias Risthaus        : pre 6.0 range-separated hybrid DFT and stability analysis
  Lukas Wittmann         : regularized MP2, r2SCAN double-hybrids, wr2SCAN        
                                                                         
We gratefully acknowledge several colleagues who have allowed us to      
interface, adapt or use parts of their codes:                            
  Ed Valeev, F. Pavosevic, A. Kumar             : LibInt (2-el integral package), F12 methods 
  Garnet Chan, S. Sharma, J. Yang, R. Olivares  : DMRG                   
  Ulf Ekstrom                                   : XCFun DFT Library      
  Mihaly Kallay                                 : mrcc  (arbitrary order and MRCC methods)
  Frank Weinhold                                : gennbo (NPA and NBO analysis)           
  Simon Mueller                                 : openCOSMO-RS                            
  Christopher J. Cramer and Donald G. Truhlar   : smd solvation model                     
  S Lehtola, MJT Oliveira, MAL Marques          : LibXC Library                           
  Liviu Ungur et al                             : ANISO software                          


 Your calculation uses the libint2 library for the computation of 2-el integrals
 For citations please refer to: http://libint.valeyev.net

 Your ORCA version has been built with support for libXC version: 7.0.0
 For citations please refer to: https://libxc.gitlab.io

 This ORCA versions uses:
   CBLAS   interface :  Fast vector & matrix operations
   LAPACKE interface :  Fast linear algebra routines
   SCALAPACK package :  Parallel linear algebra routines
   Shared memory     :  Shared parallel matrices
   BLAS/LAPACK       :  OpenBLAS 0.3.29  USE64BITINT DYNAMIC_ARCH NO_AFFINITY Cooperlake SINGLE_THREADED
        Core in use  :  Cooperlake
   Copyright (c) 2011-2014, The OpenBLAS Project


  ***********************************
  * Starting time: Wed Jul 22 14:00:53 2026
  * Host name:     c1-36
  * Process ID:    2855326
  * Working dir.:  /cluster/projects/nn14654k/ylvaos/TPhP_bsse/orca/opt1_bp86_pet3
  ***********************************

================================================================================



################################################################################


                                COMPOUND JOB MainJOB 
Basename: x2csvp_pet3_Compound_0

################################################################################

================================================================================
                                       INPUT FILE
================================================================================
NAME = x2csvp_pet3_Compound_0.inp
|  1> #
|  2>  
|  3> #
|  4>  
|  5> 
|  6>                          ****END OF INPUT****
================================================================================
================================================================================



################################################################################


                                COMPOUND JOB  1 
Basename: x2csvp_pet3_Compound_1
NOTE: please remember that MaxCore and PAL settings will be ignored.

################################################################################

================================================================================
                                       INPUT FILE
================================================================================
NAME = x2csvp_pet3_Compound_1.inp
|  1>   ! BP86 X2C-SVPall VeryTightSCF defgrid3 NOAUTOSTART
|  2>   %loc
|  3>     LocMet NEWBOYS
|  4>     Occ true
|  5>   end
|  6>   %id "TPhP"
|  7>   * xyzfile 0 1 opt1_pet3/TPhP_pet3_opt.xyz
|  8> 
|  9>                          ****END OF INPUT****
================================================================================


***************************************
The coordinates will be read from file: opt1_pet3/TPhP_pet3_opt.xyz
***************************************


Warning: RI is on but no J-basis has been assigned. Assigning Def2/J (nothing to worry about!)
================================================================================

----- Orbital basis set information -----
Your calculation utilizes the basis: x2c-SVPall
   P. Pollak; F. Weigend. J. Chem. Theory Comput., 13, 3696 – 3705, (2017).
   Y. J. Franzke; R. Treß; T. M. Pazedera; F. Weigend.
   Phys. Chem. Chem. Phys. 21, 16658 (2019).

----- AuxJ basis set information -----
Your calculation utilizes the auxiliary basis: def2/J
   H-Rn: F. Weigend, Phys. Chem. Chem. Phys. 8, 1057 (2006).
   Fr-Lr: K. Eichkorn, F. Weigend, O. Treutler, R. Ahlrichs; Theor. Chem. Acc. 97, 119 (1997).

================================================================================
                                        WARNINGS
                       Please study these warnings very carefully!
================================================================================



                       ****************************
                       * Single Point Calculation *
                       ****************************

---------------------------------
CARTESIAN COORDINATES (ANGSTROEM)
---------------------------------
  P     -2.496572    4.358218    0.961695
  C     -2.830114    4.260113   -0.866445
  C     -3.345589    2.811366    1.561439
  C     -3.802650    5.595389    1.432200
  C     -2.398597    1.621866    1.739930
  H     -2.934867    0.740637    2.128473
  H     -1.921427    1.328865    0.792060
  H     -1.591255    1.867243    2.448088
  H     -3.799711    3.064701    2.534987
  H     -4.183117    2.556416    0.887243
  C     -2.090761    3.118216   -1.566006
  H     -1.011808    3.142854   -1.341432
  H     -2.475386    2.134953   -1.252787
  H     -2.208691    3.181110   -2.659753
  H     -3.918630    4.181442   -1.041169
  H     -2.508458    5.223957   -1.296286
  C     -3.496164    7.010960    0.940145
  H     -3.504918    7.070680   -0.159960
  H     -4.241632    7.731758    1.312717
  H     -2.503225    7.343924    1.283740
  H     -3.854480    5.587441    2.534769
  H     -4.789786    5.259570    1.066192

----------------------------
CARTESIAN COORDINATES (A.U.)
----------------------------
  NO LB      ZA    FRAG     MASS         X           Y           Z
   0 P    15.0000    0    30.974   -4.717838    8.235839    1.817340
   1 C     6.0000    0    12.011   -5.348140    8.050447   -1.637344
   2 C     6.0000    0    12.011   -6.322247    5.312712    2.950692
   3 C     6.0000    0    12.011   -7.185967   10.573752    2.706466
   4 C     6.0000    0    12.011   -4.532692    3.064883    3.287990
   5 H     1.0000    0     1.008   -5.546095    1.399601    4.022232
   6 H     1.0000    0     1.008   -3.630972    2.511191    1.496776
   7 H     1.0000    0     1.008   -3.007036    3.528579    4.626216
   8 H     1.0000    0     1.008   -7.180413    5.791446    4.790432
   9 H     1.0000    0     1.008   -7.904946    4.830927    1.676646
  10 C     6.0000    0    12.011   -3.950965    5.892574   -2.959323
  11 H     1.0000    0     1.008   -1.912040    5.939133   -2.534940
  12 H     1.0000    0     1.008   -4.677802    4.034476   -2.367424
  13 H     1.0000    0     1.008   -4.173821    6.011427   -5.026204
  14 H     1.0000    0     1.008   -7.405138    7.901780   -1.967525
  15 H     1.0000    0     1.008   -4.740299    9.871847   -2.449625
  16 C     6.0000    0    12.011   -6.606792   13.248794    1.776617
  17 H     1.0000    0     1.008   -6.623335   13.361649   -0.302280
  18 H     1.0000    0     1.008   -8.015523   14.610906    2.480675
  19 H     1.0000    0     1.008   -4.730410   13.878005    2.425918
  20 H     1.0000    0     1.008   -7.283911   10.558734    4.790019
  21 H     1.0000    0     1.008   -9.051384    9.939146    2.014811

--------------------------------
INTERNAL COORDINATES (ANGSTROEM)
--------------------------------
 P      0   0   0     0.000000000000     0.00000000     0.00000000
 C      1   0   0     1.860905744555     0.00000000     0.00000000
 C      1   2   0     1.863672087419   100.99549471     0.00000000
 C      1   2   3     1.859517109218    99.07658327   259.24416761
 C      3   1   2     1.530869875718   113.61766761    96.89912402
 H      5   3   1     1.102323048053   111.18122693   178.01634657
 H      5   3   1     1.100908099401   111.99534858   298.37010234
 H      5   3   1     1.101589943651   110.80802490    57.97335708
 H      3   1   2     1.103721481200   106.30698720   217.11171643
 H      3   1   2     1.104985827076   109.90431303   331.65635816
 C      2   1   3     1.529692141525   113.70279000   291.46422500
 H     11   2   1     1.102351374017   111.29835511   307.79013088
 H     11   2   1     1.101294701768   111.56843112    68.10701364
 H     11   2   1     1.101882244264   111.07602939   187.66618918
 H      2   1   3     1.105253879502   109.60755821    55.71726298
 H      2   1   3     1.103276524908   106.52490118   170.82258338
 C      4   1   2     1.529670922694   113.17689291   288.85679668
 H     17   4   1     1.101759139096   111.70082573    65.32870859
 H     17   4   1     1.101854529872   111.16468046   185.10476628
 H     17   4   1     1.102202370966   111.08659259   305.20449840
 H      4   1   2     1.103814950381   106.31570104   168.34474092
 H      4   1   2     1.105067359229   109.96405202    53.24689298

---------------------------
INTERNAL COORDINATES (A.U.)
---------------------------
 P      0   0   0     0.000000000000     0.00000000     0.00000000
 C      1   0   0     3.516602218249     0.00000000     0.00000000
 C      1   2   0     3.521829848655   100.99549471     0.00000000
 C      1   2   3     3.513978077764    99.07658327   259.24416761
 C      3   1   2     2.892924811776   113.61766761    96.89912402
 H      5   3   1     2.083088671929   111.18122693   178.01634657
 H      5   3   1     2.080414806484   111.99534858   298.37010234
 H      5   3   1     2.081703305381   110.80802490    57.97335708
 H      3   1   2     2.085731327594   106.30698720   217.11171643
 H      3   1   2     2.088120595038   109.90431303   331.65635816
 C      2   1   3     2.890699216694   113.70279000   291.46422500
 H     11   2   1     2.083142200244   111.29835511   307.79013088
 H     11   2   1     2.081145379080   111.56843112    68.10701364
 H     11   2   1     2.082255673489   111.07602939   187.66618918
 H      2   1   3     2.088627140712   109.60755821    55.71726298
 H      2   1   3     2.084890482061   106.52490118   170.82258338
 C      4   1   2     2.890659118914   113.17689291   288.85679668
 H     17   4   1     2.082023038435   111.70082573    65.32870859
 H     17   4   1     2.082203300878   111.16468046   185.10476628
 H     17   4   1     2.082860625285   111.08659259   305.20449840
 H      4   1   2     2.085907958748   106.31570104   168.34474092
 H      4   1   2     2.088274668478   109.96405202    53.24689298

---------------------
BASIS SET INFORMATION
---------------------
There are 3 groups of distinct atoms

 Group   1 Type P   : 10s7p1d contracted to 4s3p1d pattern {5311/511/1}
 Group   2 Type C   : 7s4p1d contracted to 3s2p1d pattern {511/31/1}
 Group   3 Type H   : 4s1p contracted to 2s1p pattern {31/1}

Atom   0P    basis set group =>   1
Atom   1C    basis set group =>   2
Atom   2C    basis set group =>   2
Atom   3C    basis set group =>   2
Atom   4C    basis set group =>   2
Atom   5H    basis set group =>   3
Atom   6H    basis set group =>   3
Atom   7H    basis set group =>   3
Atom   8H    basis set group =>   3
Atom   9H    basis set group =>   3
Atom  10C    basis set group =>   2
Atom  11H    basis set group =>   3
Atom  12H    basis set group =>   3
Atom  13H    basis set group =>   3
Atom  14H    basis set group =>   3
Atom  15H    basis set group =>   3
Atom  16C    basis set group =>   2
Atom  17H    basis set group =>   3
Atom  18H    basis set group =>   3
Atom  19H    basis set group =>   3
Atom  20H    basis set group =>   3
Atom  21H    basis set group =>   3
---------------------------------
AUXILIARY/J BASIS SET INFORMATION
---------------------------------
There are 3 groups of distinct atoms

 Group   1 Type P   : 14s5p5d2f1g contracted to 8s4p3d1f1g pattern {71111111/2111/311/2/1}
 Group   2 Type C   : 12s5p4d2f1g contracted to 6s4p3d1f1g pattern {711111/2111/211/2/1}
 Group   3 Type H   : 5s2p1d contracted to 3s1p1d pattern {311/2/1}

Atom   0P    basis set group =>   1
Atom   1C    basis set group =>   2
Atom   2C    basis set group =>   2
Atom   3C    basis set group =>   2
Atom   4C    basis set group =>   2
Atom   5H    basis set group =>   3
Atom   6H    basis set group =>   3
Atom   7H    basis set group =>   3
Atom   8H    basis set group =>   3
Atom   9H    basis set group =>   3
Atom  10C    basis set group =>   2
Atom  11H    basis set group =>   3
Atom  12H    basis set group =>   3
Atom  13H    basis set group =>   3
Atom  14H    basis set group =>   3
Atom  15H    basis set group =>   3
Atom  16C    basis set group =>   2
Atom  17H    basis set group =>   3
Atom  18H    basis set group =>   3
Atom  19H    basis set group =>   3
Atom  20H    basis set group =>   3
Atom  21H    basis set group =>   3
------------------------------------------------------------------------------
                             ORCA STARTUP CALCULATIONS
                           -- RI-GTO INTEGRALS CHOSEN --
------------------------------------------------------------------------------
------------------------------------------------------------------------------
                   ___                                                        
                  /   \      - P O W E R E D   B Y -                         
                 /     \                                                     
                 |  |  |   _    _      __       _____    __    __             
                 |  |  |  | |  | |    /  \     |  _  \  |  |  /  |          
                  \  \/   | |  | |   /    \    | | | |  |  | /  /          
                 / \  \   | |__| |  /  /\  \   | |_| |  |  |/  /          
                |  |  |   |  __  | /  /__\  \  |    /   |      \           
                |  |  |   | |  | | |   __   |  |    \   |  |\   \          
                \     /   | |  | | |  |  |  |  | |\  \  |  | \   \       
                 \___/    |_|  |_| |__|  |__|  |_| \__\ |__|  \__/        
                                                                              
                      - O R C A' S   B I G   F R I E N D -                    
                                      &                                       
                       - I N T E G R A L  F E E D E R -                       
                                                                              
 v1 FN, 2020, v2 2021, v3 2022-2024                                           
------------------------------------------------------------------------------


----------------------
SHARK INTEGRAL PACKAGE
----------------------

Number of atoms                             ...     22
Number of basis functions                   ...    177
Number of shells                            ...     89
Maximum angular momentum                    ...      2
Integral batch strategy                     ... SHARK/LIBINT Hybrid
RI-J (if used) integral strategy            ... SPLIT-RIJ (Revised 2003 algorithm where possible)
Printlevel                                  ...      1
Contraction scheme used                     ... SEGMENTED contraction
Prescreening option                         ... SCHWARTZ
   Thresh                                   ... 1.000e-12
   Tcut                                     ... 1.000e-14
   Tpresel                                  ... 1.000e-14 
Coulomb Range Separation                    ... NOT USED
Exchange Range Separation                   ... NOT USED
Multipole approximations                    ... NOT USED
Finite Nucleus Model                        ... NOT USED
CABS basis                                  ... NOT available
Auxiliary Coulomb fitting basis             ... AVAILABLE
   # of basis functions in Aux-J            ...    510
   # of shells in Aux-J                     ...    182
   Maximum angular momentum in Aux-J        ...      4
Auxiliary J/K fitting basis                 ... NOT available
Auxiliary Correlation fitting basis         ... NOT available
Auxiliary 'external' fitting basis          ... NOT available

Checking pre-screening integrals            ... done (  0.0 sec) Dimension = 89
   => SHARK Basis and OBASIS are compatible. Storing Pre-screening
Shell pair information
Shell pair cut-off parameter TPreSel        ...   1.0e-14
Total number of shell pairs                 ...      4005
Shell pairs after pre-screening             ...      3817
Total number of primitive shell pairs       ...     13841
Primitive shell pairs kept                  ...      9823
          la=0 lb=0:   1330 shell pairs
          la=1 lb=0:   1479 shell pairs
          la=1 lb=1:    432 shell pairs
          la=2 lb=0:    349 shell pairs
          la=2 lb=1:    200 shell pairs
          la=2 lb=2:     27 shell pairs

Checking whether 4 symmetric matrices of dimension 177 fit in memory
:Max Core in MB      =   4096.00
 MB in use           =      8.15
 MB left             =   4087.85
 MB needed           =      0.48
 Data fit in memory  = YES
Calculating RI/J V-Matrix + Cholesky decomp.... done (  0.1 sec)
Calculating Nuclear repulsion               ... done (  0.0 sec) ENN=    396.854013593545 Eh

Diagonalization of the overlap matrix:
Smallest eigenvalue                        ... 2.169e-03
Time for diagonalization                   ...    0.013 sec
Threshold for overlap eigenvalues          ... 1.000e-07
Number of eigenvalues below threshold      ... 0
Time for construction of square roots      ...    0.021 sec
Total time needed                          ...    0.034 sec

-------------------
DFT GRID GENERATION
-------------------

General Integration Accuracy     IntAcc      ... 4.959
Radial Grid Type                 RadialGrid  ... OptM3 with GC (2021)
Angular Grid (max. ang.)         AngularGrid ... 6 (Lebedev-590)
Angular grid pruning method      GridPruning ... 4 (adaptive)
Weight generation scheme         WeightScheme... mBecke (2022)
Basis function cutoff            BFCut       ... 1.0000e-12
Integration weight cutoff        WCut        ... 1.0000e-14
Partially contracted basis set               ... off
Rotationally invariant grid construction     ... off
Angular grids for H and He will be reduced by one unit

Total number of grid points                  ...   231185
Total number of batches                      ...     3622
Average number of points per batch           ...       63
Average number of grid points per atom       ...    10508
Grids setup in   2.4 sec
Initializing property integral containers    ... done (  0.0 sec)

SHARK setup successfully completed in   3.0 seconds

Maximum memory used throughout the entire STARTUP-calculation: 77.7 MB
-------------------------------------------------------------------------------
                                 ORCA GUESS
                   Start orbitals & Density for SCF / CASSCF
-------------------------------------------------------------------------------

------------
SCF SETTINGS
------------
Hamiltonian:
 Density Functional     Method          .... DFT(GTOs)
 Exchange Functional    Exchange        .... B88
   X-Alpha parameter    XAlpha          ....  0.666667
   Becke's b parameter  XBeta           ....  0.004200
 Correlation Functional Correlation     .... P86
 LDA part of GGA corr.  LDAOpt          .... PW91-LDA
 Gradients option       PostSCFGGA      .... off
   NL short-range parameter             ....  4.400000
 RI-approximation to the Coulomb term is turned on
   Number of AuxJ basis functions       .... 510


General Settings:
 Integral files         IntName         .... x2csvp_pet3_Compound_1
 Hartree-Fock type      HFTyp           .... RHF
 Total Charge           Charge          ....    0
 Multiplicity           Mult            ....    1
 Number of Electrons    NEL             ....   66
 Basis Dimension        Dim             ....  177
 Nuclear Repulsion      ENuc            ....    396.8540135935 Eh

Convergence Acceleration:
 AO-DIIS                CNVDIIS         .... on
   Start iteration      DIISMaxIt       ....    12
   Startup error        DIISStart       ....  0.200000
   # of expansion vecs  DIISMaxEq       ....     5
   Bias factor          DIISBfac        ....   1.050
   Max. coefficient     DIISMaxC        ....  10.000
 MO-DIIS                CNVKDIIS        .... off
 Trust-Rad. Augm. Hess. CNVTRAH         .... auto
   Auto Start mean grad. ratio tolernc. ....  1.125000
   Auto Start start iteration           ....    50
   Auto Start num. interpolation iter.  ....    10
   Max. Number of Micro iterations      ....    24
   Max. Number of Macro iterations      .... Maxiter - #DIIS iter
   Number of Davidson start vectors     ....     2
   Converg. threshold    (grad. norm)   ....   2.000e-06
   Grad. Scal. Fac. for Micro threshold ....   0.100
   Minimum threshold for Micro iter.    ....   1.000e-02
   NR start threshold (gradient norm)   ....   1.000e-04
   Initial trust radius                 ....   0.400
   Minimum AH scaling param. (alpha)    ....   1.000
   Maximum AH scaling param. (alpha)    .... 1000.000
   Quad. conv. algorithm                .... NR
   White noise on init. David. guess    .... on
   Maximum white noise                  ....   0.010
   Pseudo random numbers                .... off
   Inactive MOs                         .... canonical
   Orbital update algorithm             .... Taylor
   Preconditioner                       .... Diag
   Full preconditioner red. dimension   ....   250
 SOSCF                 CNVSOSCF           .... on
   Start iteration     SOSCFMaxIt         ....   150
   Startup grad/error  SOSCFStart         ....  0.003300
   Hessian update      SOSCFHessUp        .... L-BFGS
   Autom. constraints  SOSCFAutoConstrain .... off
 Level Shifting         CNVShift        .... on
   Level shift para.    LevelShift      ....    0.2500
   Turn off err/grad.   ShiftErr        ....    0.0010
 Zerner damping         CNVZerner       .... off
 Static damping         CNVDamp         .... on
   Fraction old density DampFac         ....    0.7000
   Max. Damping (<1)    DampMax         ....    0.9800
   Min. Damping (>=0)   DampMin         ....    0.0000
   Turn off err/grad.   DampErr         ....    0.1000

SCF Procedure:
 Maximum # iterations   MaxIter         ....   125
 SCF integral mode      SCFMode         .... Direct
   Integral package                     .... SHARK and LIBINT hybrid scheme
 Reset frequency        DirectResetFreq ....    20
 Integral Threshold     Thresh          ....  1.000e-12 Eh
 Primitive CutOff       TCut            ....  1.000e-14 Eh

Convergence Tolerance:
 Convergence Check Mode ConvCheckMode   .... Total+1el-Energy
 Convergence forced     ConvForced      .... 0
 Energy Change          TolE            ....  1.000e-09 Eh
 1-El. energy change                    ....  1.000e-06 Eh
 Orbital Gradient       TolG            ....  2.000e-06
 Orbital Rotation angle TolX            ....  2.000e-06
 DIIS Error             TolErr          ....  1.000e-08

------------------------------
INITIAL GUESS: MODEL POTENTIAL
------------------------------
Loading Hartree-Fock densities                     ... done
Calculating cut-offs                               ... done
Initializing the effective Hamiltonian             ... done
Setting up the integral package (SHARK)            ... done
Starting the Coulomb interaction                   ... done (   0.3 sec)
Making the grid                                    ... done (   0.1 sec)
Mapping shells                                     ... done
Starting the XC term evaluation                    ... done (   0.1 sec)
  promolecular density results
     # of electrons  =     65.995224421
     EX              =    -57.915877141
     EC              =     -2.437591366
     EX+EC           =    -60.353468507
Transforming the Hamiltonian                       ... done (   0.0 sec)
Diagonalizing the Hamiltonian                      ... done (   0.0 sec)
Back transforming the eigenvectors                 ... done (   0.0 sec)
Now organizing SCF variables                       ... done
                      ------------------
                      INITIAL GUESS DONE (   0.6 sec)
                      ------------------
             **** ENERGY FILE WAS UPDATED (x2csvp_pet3_Compound_1.en.tmp) ****
Finished Guess after   0.7 sec
Maximum memory used throughout the entire GUESS-calculation: 12.7 MB

-------------------------------------------------------------------------------------------
                                      ORCA LEAN-SCF
                              memory conserving SCF solver
-------------------------------------------------------------------------------------------

----------------------------------------D-I-I-S--------------------------------------------
Iteration    Energy (Eh)           Delta-E    RMSDP     MaxDP     DIISErr   Damp  Time(sec)
-------------------------------------------------------------------------------------------
               ***  Starting incremental Fock matrix formation  ***
    1    -578.4544165160143621     0.00e+00  3.20e-03  7.38e-02  1.56e-01  0.700   1.5
    2    -578.5750390390451230    -1.21e-01  2.29e-03  4.79e-02  7.39e-02  0.700   1.3
                               ***Turning on AO-DIIS***
    3    -578.6157522962098483    -4.07e-02  1.04e-03  4.00e-02  2.04e-02  0.700   1.3
    4    -578.6395614264458800    -2.38e-02  1.90e-03  9.29e-02  7.58e-03  0.000   1.2
    5    -578.6940647272001570    -5.45e-02  3.60e-04  8.28e-03  7.39e-03  0.000   1.2
                              *** Initializing SOSCF ***
---------------------------------------S-O-S-C-F--------------------------------------
Iteration    Energy (Eh)           Delta-E    RMSDP     MaxDP     MaxGrad    Time(sec)
--------------------------------------------------------------------------------------
    6    -578.6946838769581518    -6.19e-04  1.36e-04  1.82e-03  1.80e-03     1.2
               *** Restarting incremental Fock matrix formation ***
    7    -578.6947390483608160    -5.52e-05  1.06e-04  1.85e-03  2.43e-04     1.3
    8    -578.6947394325557070    -3.84e-07  2.91e-05  8.23e-04  2.46e-04     1.1
    9    -578.6947445945177151    -5.16e-06  1.67e-05  5.94e-04  3.96e-05     0.9
   10    -578.6947446698970907    -7.54e-08  6.84e-06  3.56e-04  3.35e-05     0.9
   11    -578.6947447385600753    -6.87e-08  3.67e-06  6.14e-05  1.92e-05     0.9
   12    -578.6947447422307960    -3.67e-09  2.13e-06  7.76e-05  1.13e-05     0.9
   13    -578.6947447500097041    -7.78e-09  1.04e-06  3.00e-05  3.91e-06     1.0
   14    -578.6947447500408543    -3.12e-11  5.03e-07  1.04e-05  3.25e-06     0.9
                 **** Energy Check signals convergence ****

               *****************************************************
               *                     SUCCESS                       *
               *           SCF CONVERGED AFTER  14 CYCLES          *
               *****************************************************

             **** ENERGY FILE WAS UPDATED (x2csvp_pet3_Compound_1.en.tmp) ****

----------------
TOTAL SCF ENERGY
----------------

Total Energy       :       -578.69474475065499 Eh          -15747.08457 eV

Components:
Nuclear Repulsion  :        396.85401359354483 Eh           10798.94672 eV
Electronic Energy  :       -975.54875834419977 Eh          -26546.03129 eV
One Electron Energy:      -1578.00374654951383 Eh          -42939.66495 eV
Two Electron Energy:        602.45498820531407 Eh           16393.63367 eV

Virial components:
Potential Energy   :      -1159.07904697033791 Eh          -31540.14434 eV
Kinetic Energy     :        580.38430221968281 Eh           15793.05977 eV
Virial Ratio       :          1.99708889874766

DFT components:
N(Alpha)           :       33.000000308500 electrons
N(Beta)            :       33.000000308500 electrons
N(Total)           :       66.000000617000 electrons
E(X)               :      -59.038427956336 Eh       
E(C)               :       -2.436905335766 Eh       
E(XC)              :      -61.475333292102 Eh       

---------------
SCF CONVERGENCE
---------------

  Last Energy change         ...    3.1150e-11  Tolerance :   1.0000e-09
  Last MAX-Density change    ...    1.0428e-05  Tolerance :   1.0000e-08
  Last RMS-Density change    ...    5.0322e-07  Tolerance :   1.0000e-09
  Last DIIS Error            ...    1.7981e-03  Tolerance :   1.0000e-08
  Last Orbital Gradient      ...    3.2493e-06  Tolerance :   2.0000e-06
  Last Orbital Rotation      ...    5.5779e-06  Tolerance :   2.0000e-06


----------------
ORBITAL ENERGIES
----------------

  NO   OCC          E(Eh)            E(eV) 
   0   2.0000     -76.202122     -2073.5652 
   1   2.0000      -9.910546      -269.6797 
   2   2.0000      -9.910156      -269.6691 
   3   2.0000      -9.909935      -269.6630 
   4   2.0000      -9.907817      -269.6054 
   5   2.0000      -9.907339      -269.5924 
   6   2.0000      -9.904645      -269.5191 
   7   2.0000      -6.274251      -170.7310 
   8   2.0000      -4.503521      -122.5470 
   9   2.0000      -4.503324      -122.5417 
  10   2.0000      -4.499691      -122.4428 
  11   2.0000      -0.711736       -19.3673 
  12   2.0000      -0.677513       -18.4361 
  13   2.0000      -0.673798       -18.3350 
  14   2.0000      -0.591348       -16.0914 
  15   2.0000      -0.546558       -14.8726 
  16   2.0000      -0.535894       -14.5824 
  17   2.0000      -0.468112       -12.7380 
  18   2.0000      -0.413912       -11.2631 
  19   2.0000      -0.397697       -10.8219 
  20   2.0000      -0.391300       -10.6478 
  21   2.0000      -0.389273       -10.5927 
  22   2.0000      -0.366817        -9.9816 
  23   2.0000      -0.357263        -9.7216 
  24   2.0000      -0.337063        -9.1720 
  25   2.0000      -0.329996        -8.9797 
  26   2.0000      -0.323428        -8.8009 
  27   2.0000      -0.317662        -8.6440 
  28   2.0000      -0.303337        -8.2542 
  29   2.0000      -0.300672        -8.1817 
  30   2.0000      -0.266023        -7.2389 
  31   2.0000      -0.261753        -7.1227 
  32   2.0000      -0.189100        -5.1457 
  33   0.0000       0.018839         0.5126 
  34   0.0000       0.031599         0.8598 
  35   0.0000       0.036004         0.9797 
  36   0.0000       0.060699         1.6517 
  37   0.0000       0.067481         1.8362 
  38   0.0000       0.070339         1.9140 
  39   0.0000       0.087965         2.3937 
  40   0.0000       0.099875         2.7177 
  41   0.0000       0.103859         2.8262 
  42   0.0000       0.110309         3.0017 
  43   0.0000       0.113165         3.0794 
*Only the first 10 virtual orbitals were printed.

                    ********************************
                    * MULLIKEN POPULATION ANALYSIS *
                    ********************************

-----------------------
MULLIKEN ATOMIC CHARGES
-----------------------
   0 P :    0.102023
   1 C :   -0.197323
   2 C :   -0.197009
   3 C :   -0.193336
   4 C :   -0.016443
   5 H :    0.029972
   6 H :    0.025966
   7 H :    0.035730
   8 H :    0.046696
   9 H :    0.038289
  10 C :   -0.037545
  11 H :    0.038841
  12 H :    0.039606
  13 H :    0.032249
  14 H :    0.036511
  15 H :    0.055805
  16 C :   -0.035623
  17 H :    0.033759
  18 H :    0.033323
  19 H :    0.039012
  20 H :    0.051615
  21 H :    0.037880
Sum of atomic charges:    0.0000000

--------------------------------
MULLIKEN REDUCED ORBITAL CHARGES
--------------------------------
  0 P s       :     5.841571  s :     5.841571
      pz      :     2.843113  p :     8.892719
      px      :     3.244416
      py      :     2.805191
      dz2     :     0.048549  d :     0.163687
      dxz     :     0.023091
      dyz     :     0.028146
      dx2y2   :     0.019870
      dxy     :     0.044032

  1 C s       :     3.106233  s :     3.106233
      pz      :     1.020067  p :     3.062493
      px      :     1.017586
      py      :     1.024841
      dz2     :     0.007015  d :     0.028596
      dxz     :     0.004001
      dyz     :     0.005010
      dx2y2   :     0.008663
      dxy     :     0.003908

  2 C s       :     3.103363  s :     3.103363
      pz      :     1.029860  p :     3.065254
      px      :     1.029994
      py      :     1.005400
      dz2     :     0.004064  d :     0.028392
      dxz     :     0.007106
      dyz     :     0.004401
      dx2y2   :     0.005972
      dxy     :     0.006849

  3 C s       :     3.105606  s :     3.105606
      pz      :     1.031456  p :     3.059133
      px      :     1.023729
      py      :     1.003949
      dz2     :     0.008475  d :     0.028596
      dxz     :     0.002231
      dyz     :     0.004078
      dx2y2   :     0.006764
      dxy     :     0.007048

  4 C s       :     2.997192  s :     2.997192
      pz      :     1.026759  p :     2.992843
      px      :     0.995651
      py      :     0.970433
      dz2     :     0.003523  d :     0.026407
      dxz     :     0.007537
      dyz     :     0.004208
      dx2y2   :     0.004605
      dxy     :     0.006535

  5 H s       :     0.947645  s :     0.947645
      pz      :     0.006272  p :     0.022383
      px      :     0.006581
      py      :     0.009530

  6 H s       :     0.951191  s :     0.951191
      pz      :     0.011054  p :     0.022843
      px      :     0.006514
      py      :     0.005275

  7 H s       :     0.941852  s :     0.941852
      pz      :     0.008398  p :     0.022419
      px      :     0.009060
      py      :     0.004960

  8 H s       :     0.931041  s :     0.931041
      pz      :     0.011161  p :     0.022263
      px      :     0.006039
      py      :     0.005063

  9 H s       :     0.939803  s :     0.939803
      pz      :     0.008117  p :     0.021907
      px      :     0.008908
      py      :     0.004882

 10 C s       :     3.009909  s :     3.009909
      pz      :     0.998737  p :     3.001157
      px      :     1.012560
      py      :     0.989861
      dz2     :     0.008695  d :     0.026479
      dxz     :     0.002108
      dyz     :     0.003496
      dx2y2   :     0.008199
      dxy     :     0.003981

 11 H s       :     0.938769  s :     0.938769
      pz      :     0.005365  p :     0.022390
      px      :     0.012352
      py      :     0.004674

 12 H s       :     0.937724  s :     0.937724
      pz      :     0.005923  p :     0.022669
      px      :     0.005986
      py      :     0.010760

 13 H s       :     0.945295  s :     0.945295
      pz      :     0.012503  p :     0.022456
      px      :     0.005180
      py      :     0.004773

 14 H s       :     0.941688  s :     0.941688
      pz      :     0.004936  p :     0.021801
      px      :     0.012337
      py      :     0.004528

 15 H s       :     0.921993  s :     0.921993
      pz      :     0.005966  p :     0.022202
      px      :     0.005715
      py      :     0.010521

 16 C s       :     3.006848  s :     3.006848
      pz      :     1.018459  p :     3.002346
      px      :     1.019829
      py      :     0.964058
      dz2     :     0.008199  d :     0.026428
      dxz     :     0.002119
      dyz     :     0.003927
      dx2y2   :     0.005011
      dxy     :     0.007173

 17 H s       :     0.943659  s :     0.943659
      pz      :     0.012674  p :     0.022582
      px      :     0.005452
      py      :     0.004457

 18 H s       :     0.944233  s :     0.944233
      pz      :     0.006089  p :     0.022444
      px      :     0.008599
      py      :     0.007757

 19 H s       :     0.938612  s :     0.938612
      pz      :     0.005903  p :     0.022376
      px      :     0.011512
      py      :     0.004960

 20 H s       :     0.926322  s :     0.926322
      pz      :     0.012606  p :     0.022063
      px      :     0.005040
      py      :     0.004417

 21 H s       :     0.940266  s :     0.940266
      pz      :     0.005825  p :     0.021853
      px      :     0.010987
      py      :     0.005042



                     *******************************
                     * LOEWDIN POPULATION ANALYSIS *
                     *******************************

----------------------
LOEWDIN ATOMIC CHARGES
----------------------
   0 P :    0.433618
   1 C :   -0.190072
   2 C :   -0.192116
   3 C :   -0.191013
   4 C :   -0.081194
   5 H :    0.027540
   6 H :    0.023511
   7 H :    0.028234
   8 H :    0.028224
   9 H :    0.019599
  10 C :   -0.079855
  11 H :    0.028214
  12 H :    0.024972
  13 H :    0.029660
  14 H :    0.017484
  15 H :    0.026117
  16 C :   -0.080798
  17 H :    0.024664
  18 H :    0.029705
  19 H :    0.028716
  20 H :    0.026757
  21 H :    0.018034

-------------------------------
LOEWDIN REDUCED ORBITAL CHARGES
-------------------------------
  0 P s       :     5.326735  s :     5.326735
      pz      :     2.866656  p :     9.024869
      px      :     3.338933
      py      :     2.819280
      dz2     :     0.066878  d :     0.214777
      dxz     :     0.027218
      dyz     :     0.035829
      dx2y2   :     0.025602
      dxy     :     0.059251

  1 C s       :     2.900731  s :     2.900731
      pz      :     1.089301  p :     3.217491
      px      :     1.070907
      py      :     1.057283
      dz2     :     0.017912  d :     0.071850
      dxz     :     0.009308
      dyz     :     0.012709
      dx2y2   :     0.021551
      dxy     :     0.010370

  2 C s       :     2.900929  s :     2.900929
      pz      :     1.080901  p :     3.219973
      px      :     1.072104
      py      :     1.066968
      dz2     :     0.011263  d :     0.071214
      dxz     :     0.018177
      dyz     :     0.009660
      dx2y2   :     0.012394
      dxy     :     0.019720

  3 C s       :     2.900906  s :     2.900906
      pz      :     1.074570  p :     3.218121
      px      :     1.088439
      py      :     1.055112
      dz2     :     0.022272  d :     0.071986
      dxz     :     0.005721
      dyz     :     0.009390
      dx2y2   :     0.017420
      dxy     :     0.017183

  4 C s       :     2.847350  s :     2.847350
      pz      :     1.071843  p :     3.164333
      px      :     1.052834
      py      :     1.039656
      dz2     :     0.010163  d :     0.069511
      dxz     :     0.019249
      dyz     :     0.010152
      dx2y2   :     0.010865
      dxy     :     0.019083

  5 H s       :     0.907796  s :     0.907796
      pz      :     0.016046  p :     0.064665
      px      :     0.018794
      py      :     0.029824

  6 H s       :     0.910956  s :     0.910956
      pz      :     0.033039  p :     0.065532
      px      :     0.018003
      py      :     0.014491

  7 H s       :     0.906792  s :     0.906792
      pz      :     0.023670  p :     0.064974
      px      :     0.027623
      py      :     0.013681

  8 H s       :     0.902937  s :     0.902937
      pz      :     0.034701  p :     0.068839
      px      :     0.018380
      py      :     0.015758

  9 H s       :     0.911116  s :     0.911116
      pz      :     0.022608  p :     0.069285
      px      :     0.030287
      py      :     0.016390

 10 C s       :     2.845529  s :     2.845529
      pz      :     1.060346  p :     3.164667
      px      :     1.062191
      py      :     1.042131
      dz2     :     0.022659  d :     0.069659
      dxz     :     0.005623
      dyz     :     0.009896
      dx2y2   :     0.020375
      dxy     :     0.011105

 11 H s       :     0.906634  s :     0.906634
      pz      :     0.013711  p :     0.065152
      px      :     0.038923
      py      :     0.012518

 12 H s       :     0.909607  s :     0.909607
      pz      :     0.015167  p :     0.065421
      px      :     0.016091
      py      :     0.034162

 13 H s       :     0.905524  s :     0.905524
      pz      :     0.038883  p :     0.064817
      px      :     0.013077
      py      :     0.012857

 14 H s       :     0.913384  s :     0.913384
      pz      :     0.016511  p :     0.069133
      px      :     0.039918
      py      :     0.012704

 15 H s       :     0.904931  s :     0.904931
      pz      :     0.020115  p :     0.068952
      px      :     0.015024
      py      :     0.033812

 16 C s       :     2.845821  s :     2.845821
      pz      :     1.065589  p :     3.165490
      px      :     1.071845
      py      :     1.028055
      dz2     :     0.021651  d :     0.069488
      dxz     :     0.005624
      dyz     :     0.009652
      dx2y2   :     0.014761
      dxy     :     0.017800

 17 H s       :     0.910229  s :     0.910229
      pz      :     0.039387  p :     0.065108
      px      :     0.012878
      py      :     0.012843

 18 H s       :     0.905437  s :     0.905437
      pz      :     0.015742  p :     0.064858
      px      :     0.024809
      py      :     0.024307

 19 H s       :     0.906217  s :     0.906217
      pz      :     0.015190  p :     0.065068
      px      :     0.035124
      py      :     0.014754

 20 H s       :     0.904902  s :     0.904902
      pz      :     0.040471  p :     0.068341
      px      :     0.013916
      py      :     0.013954

 21 H s       :     0.912725  s :     0.912725
      pz      :     0.015616  p :     0.069241
      px      :     0.037677
      py      :     0.015948



                      *****************************
                      * MAYER POPULATION ANALYSIS *
                      *****************************

  NA   - Mulliken gross atomic population
  ZA   - Total nuclear charge
  QA   - Mulliken gross atomic charge
  VA   - Mayer's total valence
  BVA  - Mayer's bonded valence
  FA   - Mayer's free valence

  ATOM       NA         ZA         QA         VA         BVA        FA
  0 P     14.8980    15.0000     0.1020     3.0660     3.0660     0.0000
  1 C      6.1973     6.0000    -0.1973     3.9898     3.9898     0.0000
  2 C      6.1970     6.0000    -0.1970     3.9720     3.9720     0.0000
  3 C      6.1933     6.0000    -0.1933     3.9858     3.9858    -0.0000
  4 C      6.0164     6.0000    -0.0164     3.9819     3.9819     0.0000
  5 H      0.9700     1.0000     0.0300     0.9839     0.9839    -0.0000
  6 H      0.9740     1.0000     0.0260     1.0031     1.0031     0.0000
  7 H      0.9643     1.0000     0.0357     0.9932     0.9932     0.0000
  8 H      0.9533     1.0000     0.0467     0.9799     0.9799    -0.0000
  9 H      0.9617     1.0000     0.0383     0.9835     0.9835    -0.0000
 10 C      6.0375     6.0000    -0.0375     3.9974     3.9974    -0.0000
 11 H      0.9612     1.0000     0.0388     0.9923     0.9923    -0.0000
 12 H      0.9604     1.0000     0.0396     0.9927     0.9927    -0.0000
 13 H      0.9678     1.0000     0.0322     0.9840     0.9840    -0.0000
 14 H      0.9635     1.0000     0.0365     0.9801     0.9801    -0.0000
 15 H      0.9442     1.0000     0.0558     0.9769     0.9769     0.0000
 16 C      6.0356     6.0000    -0.0356     3.9929     3.9929     0.0000
 17 H      0.9662     1.0000     0.0338     0.9943     0.9943     0.0000
 18 H      0.9667     1.0000     0.0333     0.9844     0.9844     0.0000
 19 H      0.9610     1.0000     0.0390     0.9911     0.9911    -0.0000
 20 H      0.9484     1.0000     0.0516     0.9741     0.9741    -0.0000
 21 H      0.9621     1.0000     0.0379     0.9784     0.9784    -0.0000

  Mayer bond orders larger than 0.100000
B(  0-P ,  1-C ) :   0.9764 B(  0-P ,  2-C ) :   0.9613 B(  0-P ,  3-C ) :   0.9688 
B(  1-C , 10-C ) :   1.0959 B(  1-C , 14-H ) :   0.9251 B(  1-C , 15-H ) :   0.9388 
B(  2-C ,  4-C ) :   1.0877 B(  2-C ,  8-H ) :   0.9390 B(  2-C ,  9-H ) :   0.9262 
B(  3-C , 16-C ) :   1.0910 B(  3-C , 20-H ) :   0.9407 B(  3-C , 21-H ) :   0.9270 
B(  4-C ,  5-H ) :   0.9604 B(  4-C ,  6-H ) :   0.9639 B(  4-C ,  7-H ) :   0.9668 
B( 10-C , 11-H ) :   0.9634 B( 10-C , 12-H ) :   0.9646 B( 10-C , 13-H ) :   0.9591 
B( 16-C , 17-H ) :   0.9679 B( 16-C , 18-H ) :   0.9609 B( 16-C , 19-H ) :   0.9643 


-------
TIMINGS
-------

Total SCF time: 0 days 0 hours 0 min 16 sec 

Total time                  ....      16.862 sec
Sum of individual times     ....      15.884 sec  ( 94.2%)

SCF preparation             ....       0.097 sec  (  0.6%)
Fock matrix formation       ....      15.567 sec  ( 92.3%)
  Startup                   ....       0.005 sec  (  0.0% of F)
  Split-RI-J                ....       2.994 sec  ( 19.2% of F)
  XC integration            ....      13.378 sec  ( 85.9% of F)
    XC Preparation          ....       0.000 sec  (  0.0% of XC)
    Basis function eval.    ....       5.119 sec  ( 38.3% of XC)
    Density eval.           ....       2.826 sec  ( 21.1% of XC)
    XC-Functional eval.     ....       0.943 sec  (  7.0% of XC)
    XC-Potential eval.      ....       3.873 sec  ( 29.0% of XC)
Diagonalization             ....       0.000 sec  (  0.0%)
Density matrix formation    ....       0.038 sec  (  0.2%)
Total Energy calculation    ....       0.007 sec  (  0.0%)
Population analysis         ....       0.018 sec  (  0.1%)
Orbital Transformation      ....       0.016 sec  (  0.1%)
Orbital Orthonormalization  ....       0.000 sec  (  0.0%)
DIIS solution               ....       0.076 sec  (  0.5%)
SOSCF solution              ....       0.065 sec  (  0.4%)
Finished LeanSCF after  16.9 sec

Maximum memory used throughout the entire LEANSCF-calculation: 32.6 MB
------------------------------------------------------------------------------
                           ORCA ORBITAL LOCALIZATION
------------------------------------------------------------------------------

Input orbitals are from                  ... x2csvp_pet3_Compound_1.gbw
Output orbitals are to                   ... x2csvp_pet3_Compound_1.loc
Max. number of iterations                ... 128
Localizations seeded randomly            ... on
Convergence tolerance                    ... 1.000e-06
Threshold for strong local MOs           ... 9.500e-01
Threshold for bond MOs                   ... 8.500e-01
Operator                                 ... 0
Orbital range for localization           ... 8 to 32
Localization criterion                   ... NEW-BOYS
Doing the dipole integrals               ... o.k.
Initial value of the localization sum :   381.864667
ITERATION   0 : L=  451.3599055133 DL=  6.95e+01 (AVERGE_DL)=    0.4813011474 
ITERATION   1 : L=  456.5837859401 DL=  5.22e+00 (AVERGE_DL)=    0.1319580795 
ITERATION   2 : L=  456.6104080369 DL=  2.66e-02 (AVERGE_DL)=    0.0094202082 
ITERATION   3 : L=  456.6104523965 DL=  4.44e-05 (AVERGE_DL)=    0.0003845325 
ITERATION   4 : L=  456.6104524777 DL=  8.12e-08 (AVERGE_DL)=    0.0000164547 
LOCALIZATION SUM CONVERGED


--------------------------------------------------------------------------------
                    LOCALIZED MOLECULAR ORBITAL COMPOSITIONS
--------------------------------------------------------------------------------

The Mulliken populations for each LMO on each atom are computed
The LMO`s will be ordered according to atom index and type
  (A) Strongly localized MO`s have populations of >=0.950 on one atom
  (B) Two center bond orbitals have populations of >=0.850 on two atoms
  (C) Other MO`s are considered to be `delocalized`

FOUND  -   4 strongly local MO`s
       -  21 two center bond MO`s
       -   0 significantly delocalized MO`s

Rather strongly localized orbitals:
MO  11:   0P  -   1.029897
MO  10:   0P  -   1.000508
MO   9:   0P  -   1.000543
MO   8:   0P  -   0.999549
Bond-like localized orbitals:
MO  32:  21H  -   0.497545  and   3C  -   0.496367
MO  31:  20H  -   0.492350  and   3C  -   0.503760
MO  30:  19H  -   0.492376  and  16C  -   0.512886
MO  29:  18H  -   0.497748  and  16C  -   0.500712
MO  28:  17H  -   0.494451  and  16C  -   0.511831
MO  27:  16C  -   0.501164  and   3C  -   0.525278
MO  26:  15H  -   0.488798  and   1C  -   0.507876
MO  25:  14H  -   0.497863  and   1C  -   0.494932
MO  24:  13H  -   0.498498  and  10C  -   0.498960
MO  23:  12H  -   0.491933  and  10C  -   0.513086
MO  22:  11H  -   0.491970  and  10C  -   0.513535
MO  21:  10C  -   0.500748  and   1C  -   0.524505
MO  20:   9H  -   0.495464  and   2C  -   0.494649
MO  19:   8H  -   0.493009  and   2C  -   0.502217
MO  18:   7H  -   0.493800  and   4C  -   0.511928
MO  17:   6H  -   0.495282  and   4C  -   0.508960
MO  16:   5H  -   0.499858  and   4C  -   0.499985
MO  15:   4C  -   0.498926  and   2C  -   0.529666
MO  14:   3C  -   0.580069  and   0P  -   0.459256
MO  13:   2C  -   0.584533  and   0P  -   0.454879
MO  12:   1C  -   0.579388  and   0P  -   0.460672
Localized MO's were stored in: x2csvp_pet3_Compound_1.loc

-------------------------   --------------------
FINAL SINGLE POINT ENERGY      -578.694744750655
-------------------------   --------------------


------------------------------------------------------------------------------
                              ORCA PROPERTY CALCULATIONS
------------------------------------------------------------------------------

GBWName                                 ... x2csvp_pet3_Compound_1.gbw
Number of atoms                         ...     22
Number of basis functions               ...    177
Max core memory                         ...   4096 MB

Electric properties:
Dipole moment                           ... YES
Quadrupole moment                       ...  NO
Static polarizability (Dipole/Dipole)   ...  NO
Static polarizability (Dipole/Quad.)    ...  NO
Static polarizability (Quad./Quad.)     ...  NO
Static polarizability (Velocity)        ...  NO
Static hyperpolarizability              ...  NO

Atomic electric properties:
Dipole moment                           ...  NO
Quadrupole moment                       ...  NO
Static polarizability                   ...  NO

Choice of electric origin               ... Center of mass
Position of electric origin             ...    -5.420071     7.823329     1.215673

General magnetic properties:
Magnetizability                         ...  NO

EPR properties:
g-Tensor (aka g-matrix)                 ...  NO
Zero-Field splitting spin-orbit         ...  NO
Zero-field splitting spin-spin          ...  NO
Hyperfine couplings                     ...  NO (   0 nuclei)
Quadrupole couplings                    ...  NO (   0 nuclei)
Contact density                         ...  NO (   0 nuclei)

NMR properties:
Chemical shifts                         ...  NO (   0 nuclei)
Spin-rotation constants                 ...  NO (   0 nuclei)
Spin-spin couplings                     ...  NO (   0 nuclei,    0 pairs)

Choice of magnetic origin               ... GIAO
Position of magnetic origin             ...     0.000000     0.000000     0.000000

Properties with geometric perturbations:
SCF Hessian                             ...  NO
IR spectrum                             ...  NO
VCD spectrum                            ...  NO
X-ray spectroscopy properties:
SCF XES/XAS/RIXS spectra                ...  NO

SCF SOC stabilization energy            ...  NO
Diagonal Born-Oppenheimer correction    ...  NO

-------------
DIPOLE MOMENT
-------------

Method             : SCF
Type of density    : Electron Density
Multiplicity       :   1
Irrep              :   0
Energy             :  -578.6947447506549906 Eh
Basis              : AO
                                X                 Y                 Z
Electronic contribution:      2.155692471       1.720223697       2.403536400
Nuclear contribution   :     -2.606845565      -1.774332239      -2.548032224
                        -----------------------------------------
Total Dipole Moment    :     -0.451153094      -0.054108543      -0.144495825
                        -----------------------------------------
Magnitude (a.u.)       :      0.476808025
Magnitude (Debye)      :      1.211949683



--------------------
Rotational spectrum 
--------------------
 
Rotational constants in cm-1:             0.086477             0.048283             0.034152 
Rotational constants in MHz :          2592.523379          1447.501080          1023.859424 

Dipole components along the rotational axes: 
x,y,z [a.u.] :     0.046480    -0.033826    -0.473330 
x,y,z [Debye]:     0.118143    -0.085979    -1.203109 

 

Dipole moment calculation done in   0.0 sec 

Maximum memory used throughout the entire PROP-calculation: 11.0 MB

Timings for individual modules:

Sum of individual times          ...       21.150 sec (=   0.353 min)
Startup calculation              ...        3.155 sec (=   0.053 min)  14.9 %
SCF iterations                   ...       17.783 sec (=   0.296 min)  84.1 %
Property calculations            ...        0.169 sec (=   0.003 min)   0.8 %
Orbital localization             ...        0.042 sec (=   0.001 min)   0.2 %


################################################################################


                                COMPOUND JOB  2 
Basename: x2csvp_pet3_Compound_2
NOTE: please remember that MaxCore and PAL settings will be ignored.

################################################################################

================================================================================
                                       INPUT FILE
================================================================================
NAME = x2csvp_pet3_Compound_2.inp
|  1>   ! BP86 X2C-SVPall VeryTightSCF defgrid3 NOAUTOSTART
|  2>   %loc
|  3>     LocMet NEWBOYS
|  4>     Occ true
|  5>   end
|  6>   %id "15h"
|  7>   * xyzfile 0 1 opt1_pet3/15h_pet3_opt.xyz
|  8> 
|  9>                          ****END OF INPUT****
================================================================================


***************************************
The coordinates will be read from file: opt1_pet3/15h_pet3_opt.xyz
***************************************


Warning: RI is on but no J-basis has been assigned. Assigning Def2/J (nothing to worry about!)
================================================================================

----- Orbital basis set information -----
Your calculation utilizes the basis: x2c-SVPall
   P. Pollak; F. Weigend. J. Chem. Theory Comput., 13, 3696 – 3705, (2017).
   Y. J. Franzke; R. Treß; T. M. Pazedera; F. Weigend.
   Phys. Chem. Chem. Phys. 21, 16658 (2019).

----- AuxJ basis set information -----
Your calculation utilizes the auxiliary basis: def2/J
   H-Rn: F. Weigend, Phys. Chem. Chem. Phys. 8, 1057 (2006).
   Fr-Lr: K. Eichkorn, F. Weigend, O. Treutler, R. Ahlrichs; Theor. Chem. Acc. 97, 119 (1997).

================================================================================
                                        WARNINGS
                       Please study these warnings very carefully!
================================================================================


WARNING: MOInp is set but Guess=PModel. MOInp will be ignored!
         To read the initial guess from a file you must also specify
         'MORead' in the simple input or 'Guess MORead' in the %scf block

WARNING: The globally-selected AuxJ basis set is optimized for use with ECPs
         Make sure a suitable alternative is explicitly given all heavy elements (Z>36)


                       ****************************
                       * Single Point Calculation *
                       ****************************

---------------------------------
CARTESIAN COORDINATES (ANGSTROEM)
---------------------------------
  Ru     1.374864    2.171995    0.018687
  P     -0.248411    0.560373    0.163431
  P      2.349570    4.236102   -0.248723
  C      0.091284   -0.919972    1.222958
  H      2.903180    1.733102    0.940206
  H      2.360464    1.095130    1.127431
  H      0.726699    2.794003    1.293116
  H      0.223520    2.843277   -0.914000
  C     -1.868936    1.196387    0.788862
  C     -0.645535   -0.176172   -1.482726
  C      1.336468    5.648518    0.370483
  C      2.652147    4.660525   -2.025383
  C      3.984277    4.532038    0.585120
  C     -3.151458    0.536472    0.279600
  H     -3.266654    0.670417   -0.806918
  H     -4.032585    0.994094    0.758208
  H     -3.187038   -0.543001    0.485683
  H     -1.864945    2.266868    0.536035
  H     -1.804948    1.149559    1.889742
  C     -1.000614   -1.969687    1.420306
  H     -1.369080   -2.370520    0.462508
  H     -1.862623   -1.559321    1.968184
  H     -0.618481   -2.821769    2.005736
  H      0.405767   -0.501666    2.194251
  H      1.000525   -1.377368    0.796121
  C      0.636187   -0.567692   -2.219568
  H      0.419318   -0.958170   -3.226743
  H      1.200399   -1.343387   -1.676811
  H      1.297861    0.308389   -2.333951
  H     -1.172745    0.610657   -2.046118
  H     -1.334383   -1.031888   -1.394494
  C      3.286572    6.002517   -2.386415
  H      2.734560    6.850507   -1.950745
  H      3.293856    6.144668   -3.479396
  H      4.330457    6.066513   -2.043804
  H      1.664637    4.552458   -2.503301
  H      3.258408    3.828402   -2.423967
  C     -0.077352    5.705094   -0.202692
  H     -0.066561    5.820758   -1.298782
  H     -0.632025    6.560019    0.217056
  H     -0.621330    4.778193    0.025748
  H      1.871148    6.592672    0.178489
  H      1.296354    5.521141    1.465354
  C      4.420053    5.958420    0.927121
  H      4.451385    6.618330    0.048656
  H      3.742840    6.417887    1.663161
  H      5.428238    5.952786    1.372793
  H      4.734109    4.030092   -0.052014
  H      3.935887    3.934131    1.509564

----------------------------
CARTESIAN COORDINATES (A.U.)
----------------------------
  NO LB      ZA    FRAG     MASS         X           Y           Z
   0 Ru   44.0000    0   101.070    2.598117    4.104477    0.035313
   1 P    15.0000    0    30.974   -0.469429    1.058952    0.308840
   2 P    15.0000    0    30.974    4.440045    8.005072   -0.470019
   3 C     6.0000    0    12.011    0.172501   -1.738495    2.311055
   4 H     1.0000    0     1.008    5.486214    3.275088    1.776731
   5 H     1.0000    0     1.008    4.460631    2.069496    2.130535
   6 H     1.0000    0     1.008    1.373263    5.279901    2.443636
   7 H     1.0000    0     1.008    0.422391    5.373016   -1.727209
   8 C     6.0000    0    12.011   -3.531778    2.260843    1.490733
   9 C     6.0000    0    12.011   -1.219884   -0.332918   -2.801947
  10 C     6.0000    0    12.011    2.525559   10.674153    0.700112
  11 C     6.0000    0    12.011    5.011831    8.807117   -3.827418
  12 C     6.0000    0    12.011    7.529192    8.564310    1.105716
  13 C     6.0000    0    12.011   -5.955393    1.013785    0.528367
  14 H     1.0000    0     1.008   -6.173082    1.266904   -1.524855
  15 H     1.0000    0     1.008   -7.620482    1.878565    1.432805
  16 H     1.0000    0     1.008   -6.022630   -1.026123    0.917807
  17 H     1.0000    0     1.008   -3.524236    4.283759    1.012959
  18 H     1.0000    0     1.008   -3.410856    2.172351    3.571094
  19 C     6.0000    0    12.011   -1.890886   -3.722169    2.683989
  20 H     1.0000    0     1.008   -2.587185   -4.479633    0.874014
  21 H     1.0000    0     1.008   -3.519847   -2.946690    3.719328
  22 H     1.0000    0     1.008   -1.168760   -5.332370    3.790292
  23 H     1.0000    0     1.008    0.766789   -0.948011    4.146534
  24 H     1.0000    0     1.008    1.890719   -2.602849    1.504451
  25 C     6.0000    0    12.011    1.202220   -1.072783   -4.194375
  26 H     1.0000    0     1.008    0.792396   -1.810679   -6.097660
  27 H     1.0000    0     1.008    2.268425   -2.538633   -3.168713
  28 H     1.0000    0     1.008    2.452601    0.582771   -4.410528
  29 H     1.0000    0     1.008   -2.216167    1.153975   -3.866603
  30 H     1.0000    0     1.008   -2.521618   -1.949986   -2.635211
  31 C     6.0000    0    12.011    6.210721   11.343114   -4.509670
  32 H     1.0000    0     1.008    5.167569   12.945581   -3.686374
  33 H     1.0000    0     1.008    6.224485   11.611740   -6.575105
  34 H     1.0000    0     1.008    8.183378   11.464047   -3.862229
  35 H     1.0000    0     1.008    3.145708    8.602898   -4.730554
  36 H     1.0000    0     1.008    6.157499    7.234631   -4.580633
  37 C     6.0000    0    12.011   -0.146175   10.781065   -0.383033
  38 H     1.0000    0     1.008   -0.125783   10.999639   -2.454342
  39 H     1.0000    0     1.008   -1.194355   12.396639    0.410177
  40 H     1.0000    0     1.008   -1.174143    9.029476    0.048657
  41 H     1.0000    0     1.008    3.535957   12.458345    0.337295
  42 H     1.0000    0     1.008    2.449753   10.433444    2.769117
  43 C     6.0000    0    12.011    8.352690   11.259783    1.752005
  44 H     1.0000    0     1.008    8.411899   12.506831    0.091947
  45 H     1.0000    0     1.008    7.072942   12.128049    3.142919
  46 H     1.0000    0     1.008   10.257884   11.249134    2.594203
  47 H     1.0000    0     1.008    8.946170    7.615771   -0.098292
  48 H     1.0000    0     1.008    7.437748    7.434430    2.852662

--------------------------------
INTERNAL COORDINATES (ANGSTROEM)
--------------------------------
 Ru     0   0   0     0.000000000000     0.00000000     0.00000000
 P      1   0   0     2.292007508696     0.00000000     0.00000000
 P      1   2   0     2.298281008999   159.92015027     0.00000000
 C      2   1   3     1.851866853109   117.92406549   208.39047592
 H      1   2   4     1.837817302525   112.91561932     3.06761652
 H      5   1   2     0.858254735304    76.17514683   355.19925988
 H      1   2   4     1.559224691378    86.24292478   272.71799414
 H      1   2   4     1.626689267304    79.92715242   181.47840286
 C      2   1   3     1.849805226996   113.58062848   330.41699427
 C      2   1   3     1.846629913846   112.11515182    88.57990547
 C      3   1   2     1.845186683902   114.55502453    32.92459561
 C      3   1   2     1.851541415283   112.75700097   274.67307332
 C      3   1   2     1.858799800052   117.63031262   152.94603275
 C      9   2   1     1.529607279965   118.27046909   148.29067464
 H     14   9   2     1.100787448439   111.33795318   297.00931857
 H     14   9   2     1.102210586535   110.27900154   178.23798264
 H     14   9   2     1.099544428568   112.84771433    58.02962152
 H      9   2   1     1.099939345936   104.69802287    25.08335313
 H      9   2   1     1.103731676852   105.77473034   273.70489806
 C      4   2   1     1.527444943399   119.48239328   175.90885803
 H     20   4   2     1.101730260080   112.13475439    55.79040731
 H     20   4   2     1.100740854224   111.58698007   294.67819748
 H     20   4   2     1.102178157519   110.61439303   175.45640585
 H      4   2   1     1.103309149554   104.64865531    51.57357035
 H      4   2   1     1.103685479000   105.13731457   300.95967385
 C     10   2   1     1.529390124407   110.57074773    48.36651548
 H     26  10   2     1.101774290414   111.48071058   183.11281064
 H     26  10   2     1.102098714322   111.83591598    62.66518748
 H     26  10   2     1.103818057346   110.43303002   302.83978715
 H     10   2   1     1.102026196275   105.89258194   289.57954923
 H     10   2   1     1.102064469552   111.88537597   173.06905122
 C     12   3   1     1.527671965608   119.73586019   179.59348663
 H     32  12   3     1.101640138461   112.00189187   305.78236778
 H     32  12   3     1.102210445671   110.51101563   186.29371398
 H     32  12   3     1.100533816617   111.80333736    67.03060833
 H     12   3   1     1.102388298567   104.30815915    54.95405992
 H     12   3   1     1.104016290520   105.27163805   304.50353844
 C     11   3   1     1.526636443539   114.25831405   305.92398364
 H     38  11   3     1.102228123546   111.60348330   298.92853650
 H     38  11   3     1.102156203677   110.59928850   179.18411196
 H     38  11   3     1.098745243745   110.43720560    58.40367560
 H     11   3   1     1.101894187310   109.32887256   181.35064426
 H     11   3   1     1.102984575702   105.34794827    66.86433426
 C     13   3   1     1.530174186214   119.94224114   204.15546090
 H     44  13   3     1.099165020698   112.90102556   302.77359717
 H     44  13   3     1.100673541033   111.30705222    63.83224053
 H     44  13   3     1.102312487578   110.24711886   182.56938770
 H     13   3   1     1.104598314493   105.42014741    78.07877040
 H     13   3   1     1.102012494245   104.55526237   327.10738818

---------------------------
INTERNAL COORDINATES (A.U.)
---------------------------
 Ru     0   0   0     0.000000000000     0.00000000     0.00000000
 P      1   0   0     4.331266488326     0.00000000     0.00000000
 P      1   2   0     4.343121685800   159.92015027     0.00000000
 C      2   1   3     3.499521188862   117.92406549   208.39047592
 H      1   2   4     3.472971385953   112.91561932     3.06761652
 H      5   1   2     1.621866402865    76.17514683   355.19925988
 H      1   2   4     2.946507647951    86.24292478   272.71799414
 H      1   2   4     3.073997220194    79.92715242   181.47840286
 C      2   1   3     3.495625280119   113.58062848   330.41699427
 C      2   1   3     3.489624807876   112.11515182    88.57990547
 C      3   1   2     3.486897498533   114.55502453    32.92459561
 C      3   1   2     3.498906200497   112.75700097   274.67307332
 C      3   1   2     3.512622559886   117.63031262   152.94603275
 C      9   2   1     2.890538851586   118.27046909   148.29067464
 H     14   9   2     2.080186809208   111.33795318   297.00931857
 H     14   9   2     2.082876150459   110.27900154   178.23798264
 H     14   9   2     2.077837842072   112.84771433    58.02962152
 H      9   2   1     2.078584127744   104.69802287    25.08335313
 H      9   2   1     2.085750594585   105.77473034   273.70489806
 C      4   2   1     2.886452627667   119.48239328   175.90885803
 H     20   4   2     2.081968465004   112.13475439    55.79040731
 H     20   4   2     2.080098758902   111.58698007   294.67819748
 H     20   4   2     2.082814868501   110.61439303   175.45640585
 H      4   2   1     2.084952133706   104.64865531    51.57357035
 H      4   2   1     2.085663293295   105.13731457   300.95967385
 C     10   2   1     2.890128487053   110.57074773    48.36651548
 H     26  10   2     2.082051670277   111.48071058   183.11281064
 H     26  10   2     2.082664742615   111.83591598    62.66518748
 H     26  10   2     2.085913830062   110.43303002   302.83978715
 H     10   2   1     2.082527703366   105.89258194   289.57954923
 H     10   2   1     2.082600029379   111.88537597   173.06905122
 C     12   3   1     2.886881637467   119.73586019   179.59348663
 H     32  12   3     2.081798159826   112.00189187   305.78236778
 H     32  12   3     2.082875884265   110.51101563   186.29371398
 H     32  12   3     2.079707514526   111.80333736    67.03060833
 H     12   3   1     2.083211977531   104.30815915    54.95405992
 H     12   3   1     2.086288436471   105.27163805   304.50353844
 C     11   3   1     2.884924784352   114.25831405   305.92398364
 H     38  11   3     2.082909290608   111.60348330   298.92853650
 H     38  11   3     2.082773381751   110.59928850   179.18411196
 H     38  11   3     2.076327601627   110.43720560    58.40367560
 H     11   3   1     2.082278242575   109.32887256   181.35064426
 H     11   3   1     2.084338778017   105.34794827    66.86433426
 C     13   3   1     2.891610149141   119.94224114   204.15546090
 H     44  13   3     2.077120865104   112.90102556   302.77359717
 H     44  13   3     2.079971555405   111.30705222    63.83224053
 H     44  13   3     2.083068715524   110.24711886   182.56938770
 H     13   3   1     2.087388302383   105.42014741    78.07877040
 H     13   3   1     2.082501810282   104.55526237   327.10738818

---------------------
BASIS SET INFORMATION
---------------------
There are 4 groups of distinct atoms

 Group   1 Type Ru  : 18s14p10d1f contracted to 6s5p5d1f pattern {733311/63311/52111/1}
 Group   2 Type P   : 10s7p1d contracted to 4s3p1d pattern {5311/511/1}
 Group   3 Type C   : 7s4p1d contracted to 3s2p1d pattern {511/31/1}
 Group   4 Type H   : 4s1p contracted to 2s1p pattern {31/1}

Atom   0Ru   basis set group =>   1
Atom   1P    basis set group =>   2
Atom   2P    basis set group =>   2
Atom   3C    basis set group =>   3
Atom   4H    basis set group =>   4
Atom   5H    basis set group =>   4
Atom   6H    basis set group =>   4
Atom   7H    basis set group =>   4
Atom   8C    basis set group =>   3
Atom   9C    basis set group =>   3
Atom  10C    basis set group =>   3
Atom  11C    basis set group =>   3
Atom  12C    basis set group =>   3
Atom  13C    basis set group =>   3
Atom  14H    basis set group =>   4
Atom  15H    basis set group =>   4
Atom  16H    basis set group =>   4
Atom  17H    basis set group =>   4
Atom  18H    basis set group =>   4
Atom  19C    basis set group =>   3
Atom  20H    basis set group =>   4
Atom  21H    basis set group =>   4
Atom  22H    basis set group =>   4
Atom  23H    basis set group =>   4
Atom  24H    basis set group =>   4
[...]
 43 H      0.9728     1.0000     0.0272     0.9838     0.9838    -0.0000
 44 H      0.9653     1.0000     0.0347     0.9964     0.9964    -0.0000
 45 H      0.9591     1.0000     0.0409     1.0110     1.0110     0.0000
 46 H      0.9234     1.0000     0.0766     0.9773     0.9773     0.0000
 47 C      6.0144     6.0000    -0.0144     4.0030     4.0030     0.0000
 48 H      0.9652     1.0000     0.0348     1.0009     1.0009     0.0000
 49 H      0.9763     1.0000     0.0237     0.9818     0.9818    -0.0000
 50 H      0.9463     1.0000     0.0537     1.0217     1.0217    -0.0000
 51 H      0.9730     1.0000     0.0270     0.9936     0.9936     0.0000
 52 H      0.9464     1.0000     0.0536     0.9871     0.9871    -0.0000
 53 C      6.0342     6.0000    -0.0342     4.0002     4.0002     0.0000
 54 H      0.9712     1.0000     0.0288     0.9818     0.9818    -0.0000
 55 H      0.9570     1.0000     0.0430     1.0553     1.0553    -0.0000
 56 H      0.9728     1.0000     0.0272     0.9958     0.9958    -0.0000
 57 H      0.9729     1.0000     0.0271     0.9904     0.9904    -0.0000
 58 H      0.9570     1.0000     0.0430     0.9919     0.9919    -0.0000
 59 C      6.0274     6.0000    -0.0274     3.9808     3.9808     0.0000
 60 H      0.9711     1.0000     0.0289     0.9981     0.9981    -0.0000
 61 H      0.9665     1.0000     0.0335     0.9843     0.9843    -0.0000
 62 H      0.9726     1.0000     0.0274     1.0003     1.0003    -0.0000
 63 H      0.9396     1.0000     0.0604     0.9932     0.9932    -0.0000
 64 H      0.9400     1.0000     0.0600     0.9956     0.9956     0.0000
 65 C      6.0375     6.0000    -0.0375     4.0110     4.0110     0.0000
 66 H      0.9701     1.0000     0.0299     0.9819     0.9819     0.0000
 67 H      0.9729     1.0000     0.0271     0.9951     0.9951    -0.0000
 68 H      0.9520     1.0000     0.0480     1.0257     1.0257    -0.0000
 69 H      0.9573     1.0000     0.0427     0.9953     0.9953    -0.0000
 70 H      0.9740     1.0000     0.0260     0.9892     0.9892    -0.0000

  Mayer bond orders larger than 0.100000
B(  0-Ru,  1-P ) :   0.7840 B(  0-Ru,  2-P ) :   0.7776 B(  0-Ru,  3-P ) :   0.7811 
B(  0-Ru,  5-H ) :   0.7598 B(  0-Ru,  6-H ) :   0.7183 B(  0-Ru,  7-H ) :   0.7550 
B(  0-Ru,  8-H ) :   0.6736 B(  1-P ,  8-H ) :   0.1097 B(  1-P ,  9-C ) :   0.9915 
B(  1-P , 10-C ) :   0.9687 B(  1-P , 13-C ) :   0.9858 B(  2-P ,  4-C ) :   0.9808 
B(  2-P , 11-C ) :   1.0080 B(  2-P , 12-C ) :   0.9972 B(  3-P , 14-C ) :   0.9921 
B(  3-P , 15-C ) :   0.9752 B(  3-P , 16-C ) :   1.0003 B(  4-C , 23-C ) :   1.0948 
B(  4-C , 27-H ) :   0.9259 B(  4-C , 28-H ) :   0.9258 B(  9-C , 59-C ) :   1.0832 
B(  9-C , 63-H ) :   0.9265 B(  9-C , 64-H ) :   0.9267 B( 10-C , 65-C ) :   1.1041 
B( 10-C , 69-H ) :   0.9295 B( 10-C , 70-H ) :   0.9154 B( 11-C , 17-C ) :   1.0865 
B( 11-C , 21-H ) :   0.9231 B( 11-C , 22-H ) :   0.9231 B( 12-C , 29-C ) :   1.1129 
B( 12-C , 33-H ) :   0.9282 B( 12-C , 34-H ) :   0.9090 B( 13-C , 53-C ) :   1.1079 
B( 13-C , 57-H ) :   0.9134 B( 13-C , 58-H ) :   0.9273 B( 14-C , 41-C ) :   1.0871 
B( 14-C , 45-H ) :   0.9172 B( 14-C , 46-H ) :   0.9153 B( 15-C , 35-C ) :   1.0937 
B( 15-C , 39-H ) :   0.9250 B( 15-C , 40-H ) :   0.9233 B( 16-C , 47-C ) :   1.1166 
B( 16-C , 51-H ) :   0.9098 B( 16-C , 52-H ) :   0.9303 B( 17-C , 18-H ) :   0.9596 
B( 17-C , 19-H ) :   0.9487 B( 17-C , 20-H ) :   0.9563 B( 23-C , 24-H ) :   0.9533 
B( 23-C , 25-H ) :   0.9563 B( 23-C , 26-H ) :   0.9521 B( 29-C , 30-H ) :   0.9453 
B( 29-C , 31-H ) :   0.9465 B( 29-C , 32-H ) :   0.9439 B( 35-C , 36-H ) :   0.9515 
B( 35-C , 37-H ) :   0.9573 B( 35-C , 38-H ) :   0.9524 B( 41-C , 42-H ) :   0.9559 
B( 41-C , 43-H ) :   0.9485 B( 41-C , 44-H ) :   0.9598 B( 47-C , 48-H ) :   0.9469 
B( 47-C , 49-H ) :   0.9470 B( 47-C , 50-H ) :   0.9421 B( 53-C , 54-H ) :   0.9538 
B( 53-C , 55-H ) :   0.9387 B( 53-C , 56-H ) :   0.9511 B( 59-C , 60-H ) :   0.9547 
B( 59-C , 61-H ) :   0.9559 B( 59-C , 62-H ) :   0.9561 B( 65-C , 66-H ) :   0.9539 
B( 65-C , 67-H ) :   0.9517 B( 65-C , 68-H ) :   0.9523 

-------
TIMINGS
-------

Total SCF time: 0 days 0 hours 3 min 39 sec 

Total time                  ....     219.725 sec
Sum of individual times     ....     213.150 sec  ( 97.0%)

SCF preparation             ....       0.105 sec  (  0.0%)
Fock matrix formation       ....     211.392 sec  ( 96.2%)
  Startup                   ....       0.017 sec  (  0.0% of F)
  Split-RI-J                ....      78.685 sec  ( 37.2% of F)
  XC integration            ....     138.787 sec  ( 65.7% of F)
    XC Preparation          ....       0.000 sec  (  0.0% of XC)
    Basis function eval.    ....      43.292 sec  ( 31.2% of XC)
    Density eval.           ....      45.057 sec  ( 32.5% of XC)
    XC-Functional eval.     ....       4.400 sec  (  3.2% of XC)
    XC-Potential eval.      ....      42.729 sec  ( 30.8% of XC)
Diagonalization             ....       0.000 sec  (  0.0%)
Density matrix formation    ....       0.147 sec  (  0.1%)
Total Energy calculation    ....       0.023 sec  (  0.0%)
Population analysis         ....       0.032 sec  (  0.0%)
Orbital Transformation      ....       0.100 sec  (  0.0%)
Orbital Orthonormalization  ....       0.000 sec  (  0.0%)
DIIS solution               ....       0.880 sec  (  0.4%)
SOSCF solution              ....       0.471 sec  (  0.2%)
Finished LeanSCF after 219.8 sec

Maximum memory used throughout the entire LEANSCF-calculation: 165.4 MB
------------------------------------------------------------------------------
                           ORCA ORBITAL LOCALIZATION
------------------------------------------------------------------------------

Input orbitals are from                  ... x2csvp_pet3_Compound_3.gbw
Output orbitals are to                   ... x2csvp_pet3_Compound_3.loc
Max. number of iterations                ... 128
Localizations seeded randomly            ... on
Convergence tolerance                    ... 1.000e-06
Threshold for strong local MOs           ... 9.500e-01
Threshold for bond MOs                   ... 8.500e-01
Operator                                 ... 0
Orbital range for localization           ... 38 to 122
Localization criterion                   ... NEW-BOYS
Doing the dipole integrals               ... o.k.
Initial value of the localization sum :  3718.319308
ITERATION   0 : L= 3949.8018534927 DL=  2.31e+02 (AVERGE_DL)=    0.2546390569 
ITERATION   1 : L= 3979.4621177803 DL=  2.97e+01 (AVERGE_DL)=    0.0911493131 
ITERATION   2 : L= 3979.7972767896 DL=  3.35e-01 (AVERGE_DL)=    0.0096892763 
ITERATION   3 : L= 3979.7996986439 DL=  2.42e-03 (AVERGE_DL)=    0.0008236447 
ITERATION   4 : L= 3979.7997985642 DL=  9.99e-05 (AVERGE_DL)=    0.0001672988 
ITERATION   5 : L= 3979.7998085886 DL=  1.00e-05 (AVERGE_DL)=    0.0000529902 
ITERATION   6 : L= 3979.7998098052 DL=  1.22e-06 (AVERGE_DL)=    0.0000184603 
ITERATION   7 : L= 3979.7998099400 DL=  1.35e-07 (AVERGE_DL)=    0.0000061445 
LOCALIZATION SUM CONVERGED


--------------------------------------------------------------------------------
                    LOCALIZED MOLECULAR ORBITAL COMPOSITIONS
--------------------------------------------------------------------------------

The Mulliken populations for each LMO on each atom are computed
The LMO`s will be ordered according to atom index and type
  (A) Strongly localized MO`s have populations of >=0.950 on one atom
  (B) Two center bond orbitals have populations of >=0.850 on two atoms
  (C) Other MO`s are considered to be `delocalized`

FOUND  -  15 strongly local MO`s
       -  70 two center bond MO`s
       -   0 significantly delocalized MO`s

Rather strongly localized orbitals:
MO  52:   3P  -   0.999381
MO  51:   3P  -   0.999382
MO  50:   3P  -   0.999381
MO  49:   2P  -   0.999362
MO  48:   2P  -   0.999459
MO  47:   2P  -   0.999349
MO  46:   1P  -   0.999338
MO  45:   1P  -   0.999267
MO  44:   1P  -   0.999335
MO  43:   0Ru -   0.984666
MO  42:   0Ru -   0.968442
MO  41:   0Ru -   0.970246
MO  40:   0Ru -   0.989070
MO  39:   0Ru -   0.967730
MO  38:   0Ru -   0.987765
Bond-like localized orbitals:
MO 122:  70H  -   0.500120  and  10C  -   0.485258
MO 121:  69H  -   0.489329  and  10C  -   0.497052
MO 120:  68H  -   0.473414  and  65C  -   0.530061
MO 119:  67H  -   0.497888  and  65C  -   0.499954
MO 118:  66H  -   0.500961  and  65C  -   0.494160
MO 117:  65C  -   0.496888  and  10C  -   0.524519
MO 116:  64H  -   0.479076  and   9C  -   0.507466
MO 115:  63H  -   0.479994  and   9C  -   0.507176
MO 114:  62H  -   0.495446  and  59C  -   0.505800
MO 113:  61H  -   0.497674  and  59C  -   0.497329
MO 112:  60H  -   0.495583  and  59C  -   0.504352
MO 111:  59C  -   0.518068  and   9C  -   0.504720
MO 110:  58H  -   0.490643  and  13C  -   0.495588
MO 109:  57H  -   0.499025  and  13C  -   0.485773
MO 108:  56H  -   0.497587  and  53C  -   0.499023
MO 107:  55H  -   0.463925  and  53C  -   0.533911
MO 106:  54H  -   0.501498  and  53C  -   0.493251
MO 105:  53C  -   0.495995  and  13C  -   0.525007
MO 104:  52H  -   0.486381  and  16C  -   0.501266
MO 103:  51H  -   0.498428  and  16C  -   0.483727
MO 102:  50H  -   0.471674  and  47C  -   0.525186
MO 101:  49H  -   0.504425  and  47C  -   0.486010
MO 100:  48H  -   0.491261  and  47C  -   0.505523
MO  99:  47C  -   0.492943  and  16C  -   0.529587
MO  98:  46H  -   0.477108  and  14C  -   0.509310
MO  97:  45H  -   0.483803  and  14C  -   0.505276
MO  96:  44H  -   0.492948  and  41C  -   0.510067
MO  95:  43H  -   0.501223  and  41C  -   0.490141
MO  94:  42H  -   0.493980  and  41C  -   0.505703
MO  93:  41C  -   0.514734  and  14C  -   0.506098
MO  92:  40H  -   0.488624  and  15C  -   0.495197
MO  91:  39H  -   0.479034  and  15C  -   0.508686
MO  90:  38H  -   0.492909  and  35C  -   0.504036
MO  89:  37H  -   0.494295  and  35C  -   0.508513
MO  88:  36H  -   0.500992  and  35C  -   0.492632
MO  87:  35C  -   0.509730  and  15C  -   0.510705
MO  86:  34H  -   0.494629  and  12C  -   0.488454
MO  85:  33H  -   0.492791  and  12C  -   0.494188
MO  84:  32H  -   0.473940  and  29C  -   0.523393
MO  83:  31H  -   0.487058  and  29C  -   0.508654
MO  82:  30H  -   0.503486  and  29C  -   0.485389
MO  81:  29C  -   0.499146  and  12C  -   0.522528
MO  80:  28H  -   0.480114  and   4C  -   0.509892
MO  79:  27H  -   0.488326  and   4C  -   0.496858
MO  78:  26H  -   0.500199  and  23C  -   0.493919
MO  77:  25H  -   0.494838  and  23C  -   0.507534
MO  76:  24H  -   0.497068  and  23C  -   0.500520
MO  75:  23C  -   0.515016  and   4C  -   0.506464
MO  74:  22H  -   0.476129  and  11C  -   0.512500
MO  73:  21H  -   0.485319  and  11C  -   0.505156
MO  72:  20H  -   0.492811  and  17C  -   0.507314
MO  71:  19H  -   0.500897  and  17C  -   0.490223
MO  70:  18H  -   0.496074  and  17C  -   0.506855
MO  69:  17C  -   0.517642  and  11C  -   0.504378
MO  68:  16C  -   0.541384  and   3P  -   0.499529
MO  67:  15C  -   0.557801  and   3P  -   0.479322
MO  66:  14C  -   0.556405  and   3P  -   0.489867
MO  65:  13C  -   0.554919  and   1P  -   0.490808
MO  64:  12C  -   0.559169  and   2P  -   0.481379
MO  63:  11C  -   0.547384  and   2P  -   0.496819
MO  62:  10C  -   0.557769  and   1P  -   0.486667
MO  61:   9C  -   0.547608  and   1P  -   0.494951
MO  60:   8H  -   0.492693  and   0Ru -   0.430328
MO  59:   7H  -   0.446178  and   0Ru -   0.483965
MO  58:   6H  -   0.445634  and   0Ru -   0.481765
MO  57:   5H  -   0.436014  and   0Ru -   0.494659
MO  56:   4C  -   0.550113  and   2P  -   0.492493
MO  55:   3P  -   0.759267  and   0Ru -   0.243908
MO  54:   2P  -   0.768614  and   0Ru -   0.235406
MO  53:   1P  -   0.740091  and   0Ru -   0.263235
Localized MO's were stored in: x2csvp_pet3_Compound_3.loc

-------------------------   --------------------
FINAL SINGLE POINT ENERGY     -6275.598318752051
-------------------------   --------------------


------------------------------------------------------------------------------
                              ORCA PROPERTY CALCULATIONS
------------------------------------------------------------------------------

GBWName                                 ... x2csvp_pet3_Compound_3.gbw
Number of atoms                         ...     71
Number of basis functions               ...    604
Max core memory                         ...   4096 MB

Electric properties:
Dipole moment                           ... YES
Quadrupole moment                       ...  NO
Static polarizability (Dipole/Dipole)   ...  NO
Static polarizability (Dipole/Quad.)    ...  NO
Static polarizability (Quad./Quad.)     ...  NO
Static polarizability (Velocity)        ...  NO
Static hyperpolarizability              ...  NO

Atomic electric properties:
Dipole moment                           ...  NO
Quadrupole moment                       ...  NO
Static polarizability                   ...  NO

Choice of electric origin               ... Center of mass
Position of electric origin             ...     0.765740     2.211755     0.227785

General magnetic properties:
Magnetizability                         ...  NO

EPR properties:
g-Tensor (aka g-matrix)                 ...  NO
Zero-Field splitting spin-orbit         ...  NO
Zero-field splitting spin-spin          ...  NO
Hyperfine couplings                     ...  NO (   0 nuclei)
Quadrupole couplings                    ...  NO (   0 nuclei)
Contact density                         ...  NO (   0 nuclei)

NMR properties:
Chemical shifts                         ...  NO (   0 nuclei)
Spin-rotation constants                 ...  NO (   0 nuclei)
Spin-spin couplings                     ...  NO (   0 nuclei,    0 pairs)

Choice of magnetic origin               ... GIAO
Position of magnetic origin             ...     0.000000     0.000000     0.000000

Properties with geometric perturbations:
SCF Hessian                             ...  NO
IR spectrum                             ...  NO
VCD spectrum                            ...  NO
X-ray spectroscopy properties:
SCF XES/XAS/RIXS spectra                ...  NO

SCF SOC stabilization energy            ...  NO
Diagonal Born-Oppenheimer correction    ...  NO

-------------
DIPOLE MOMENT
-------------

Method             : SCF
Type of density    : Electron Density
Multiplicity       :   1
Irrep              :   0
Energy             : -6275.5983187520505453 Eh
Basis              : AO
                                X                 Y                 Z
Electronic contribution:      3.809252286       6.090980173      11.618203817
Nuclear contribution   :     -4.314871469      -6.365512088     -12.404185372
                        -----------------------------------------
Total Dipole Moment    :     -0.505619183      -0.274531915      -0.785981555
                        -----------------------------------------
Magnitude (a.u.)       :      0.974056228
Magnitude (Debye)      :      2.475854172



--------------------
Rotational spectrum 
--------------------
 
Rotational constants in cm-1:             0.006370             0.006227             0.003802 
Rotational constants in MHz :           190.966885           186.692699           113.975618 

Dipole components along the rotational axes: 
x,y,z [a.u.] :    -0.199447     0.123064    -0.945443 
x,y,z [Debye]:    -0.506954     0.312804    -2.403124 

 

Dipole moment calculation done in   0.0 sec 

Maximum memory used throughout the entire PROP-calculation: 75.1 MB

Timings for individual modules:

Sum of individual times          ...      238.268 sec (=   3.971 min)
Startup calculation              ...       13.596 sec (=   0.227 min)   5.7 %
SCF iterations                   ...      224.484 sec (=   3.741 min)  94.2 %
Property calculations            ...        0.091 sec (=   0.002 min)   0.0 %
Orbital localization             ...        0.097 sec (=   0.002 min)   0.0 %

--------------------------------
SUGGESTED CITATIONS FOR THIS RUN
--------------------------------

Below you find a list of papers that are relevant to this ORCA run
We neither can nor want to force you to cite these papers, but we appreciate if you do
You receive ORCA, which is the product of decades of hard work by many enthusiastic individuals, for free
The only thing we kindly ask in return is that you cite our papers,
We deeply appreciate it, if you show your appreciation for ORCA by not just citing the generic ORCA reference.

Please note that relegating all ORCA citations to the supporting information does *not* help us.
SI sections are not indexed - citations you put there will not count into any citation statistics
But we need these citations in order to attract the funding resources that allow us to do what we are doing

Therefore, if you are a happy ORCA user, please consider citing a few of the papers listed below in the main body of your paper

In addition to the list printed below, the program has created the file x2csvp_pet3.bibtex that contains the list in bibtex format
You can import this file easily into all common literature databanks and citation aid programs

It goes without saying that in many instances, there are alternative algorithms to achieve similar
results as the ones you have gotten from ORCA. It is, of course, also the case that in some instances
ORCA just re-implements algorithms worked out by others. We are fully aware of that and we are also
fully appreciative of our colleagues work. Hence this citation list should not be read as indicating
that the listed papers, which are focused on our own work, are the only ones worth citing. It simply
meant to make it easier for users to cite ORCA specific papers. It is not a substitute for doing your
own literature research and citing the relevant literature in a scientifically appropriate manner.

List of essential papers. We consider these as the minimum necessary citations

  1. Neese, F.
     Software update: the ORCA program system, version 6.0
     WIRES Comput. Molec. Sci. 2025 15(1), e70019
     doi.org/10.1002/wcms.70019

List of papers to cite with high priority. The work reported in these papers was absolutely
necessary for this run to complete.
Our perspective: the developers of density functionals and basis sets usually get cited in chemistry papers
Good! But without the algorithms to do something with them, the functionals or basis sets would not do anything.
Hence, in our opinion, the algorithm design and method developments papers are equally worthy of getting cited

  1. Neese, F.
     An improvement of the resolution of the identity approximation for the formation of the Coulomb matrix
     J. Comp. Chem. 2003 24(14), 1740-1747
     doi.org/10.1002/jcc.10318
  2. Neese, F.
     The SHARK Integral Generation and Digestion System
     J. Comp. Chem. 2022 44(3), 381
     doi.org/10.1002/jcc.26942

List of suggested additional citations. These are papers that are important in the 'surrounding' of 
of this run, or papers that preceded the highly important papers. If you like your results we are grateful for a citation.

  1. Neese, F.
     The ORCA program system
     WIRES Comput. Molec. Sci. 2012 2(1), 73-78
     doi.org/10.1002/wcms.81
  2. Neese, F.
     Software update: the ORCA program system, version 4.0
     WIRES Comput. Molec. Sci. 2018 8(1), 1-6
     doi.org/10.1002/wcms.1327
  3. Neese, F.; Wennmohs, F.; Becker, U.; Riplinger, C.
     The ORCA quantum chemistry program package
     J. Chem. Phys. 2020 152(22), 224108
     doi.org/10.1063/5.0004608
  4. Neese, F.
     Software update: The ORCA program system—Version 5.0
     WIRES Comput. Molec. Sci. 2022 12(1), e1606
     doi.org/10.1002/wcms.1606

List of optional additional citations

  1. Neese, F.
     Approximate second-order SCF convergence for spin unrestricted wavefunctions
     Chem. Phys. Lett. 2000 325(1-3), 93-98
     doi.org/10.1016/s0009-2614(00)00662-x
                             ****ORCA TERMINATED NORMALLY****
TOTAL RUN TIME: 0 days 0 hours 6 minutes 15 seconds 941 msec
