
                                 *****************
                                 * O   R   C   A *
                                 *****************

                                            #,                                       
                                            ###                                      
                                            ####                                     
                                            #####                                    
                                            ######                                   
                                           ########,                                 
                                     ,,################,,,,,                         
                               ,,#################################,,                 
                          ,,##########################################,,             
                       ,#########################################, ''#####,          
                    ,#############################################,,   '####,        
                  ,##################################################,,,,####,       
                ,###########''''           ''''###############################       
              ,#####''   ,,,,##########,,,,          '''####'''          '####       
            ,##' ,,,,###########################,,,                        '##       
           ' ,,###''''                  '''############,,,                           
         ,,##''                                '''############,,,,        ,,,,,,###''
      ,#''                                            '''#######################'''  
     '                                                          ''''####''''         
             ,#######,   #######,   ,#######,      ##                                
            ,#'     '#,  ##    ##  ,#'     '#,    #''#        ,####,    ,#,          
            ##       ##  ##   ,#'  ##            #'  '#       #'       ,# #          
            ##       ##  #######   ##           ,######,      #####,      #          
            '#,     ,#'  ##    ##  '#,     ,#' ,#      #,     #,   #      #          
             '#######'   ##     ##  '#######'  #'      '#     '####' #    #          



                #########################################################
                #                        -***-                          #
                #          Department of theory and spectroscopy        #
                #                                                       #
                #                      Frank Neese                      #
                #                                                       #
                #     Directorship, Architecture, Infrastructure        #
                #                    SHARK, DRIVERS                     #
                #        Core code/Algorithms in most modules           #
                #                                                       #
                #        Max Planck Institute fuer Kohlenforschung      #
                #                Kaiser Wilhelm Platz 1                 #
                #                 D-45470 Muelheim/Ruhr                 #
                #                      Germany                          #
                #                                                       #
                #                  All rights reserved                  #
                #                        -***-                          #
                #########################################################


                         Program Version 6.1.1  -  RELEASE   -
                                (GIT: $487d211c$)
                          ($2025-11-21 10:33:24 +0100$)


 With contributions from (in alphabetic order):
[Max-Planck-Institut fuer Kohlenforschung]                               
  Daniel Aravena         : Magnetic Suceptibility                        
  Michael Atanasov       : Ab Initio Ligand Field Theory (pilot matlab implementation)
  Alexander A. Auer      : GIAO ZORA, VPT2 properties, NMR spectrum      
  Ute Becker             : All parallelization in ORCA, NUMFREQ, NUMCALC 
  Giovanni Bistoni       : ED, misc. LED, open-shell LED, HFLD           
  Dmytro Bykov           : pre 5.0 version of the SCF Hessian            
  Marcos Casanova-Páez   : Triplet and SCS-CIS(D). UHF-(DLPNO)-IP/EA/STEOM-CCSD. UHF-CVS-IP/STEOM-CCSD   
  Vijay G. Chilkuri      : MRCI spin determinant printing, contributions to CSF-ICE 
  Pauline Colinet        : FMM embedding                                 
  Dipayan Datta          : RHF DLPNO-CCSD density                        
  Achintya Kumar Dutta   : EOM-CC, STEOM-CC                              
  Nicolas Foglia         : Exact transition moments, OPA infrastructure, MCD improvements    
  Dmitry Ganyushin       : Spin-Orbit,Spin-Spin,Magnetic field MRCI      
  Miquel Garcia-Rates    : C-PCM and meta-GGA Hessian, CCSD/C-PCM, Gaussian charge scheme 
  Tiago L. C. Gouveia    : GS-ROHF, GS-ROCIS                             
  Yang Guo               : DLPNO-NEVPT2, F12-NEVPT2, CIM, IAO-localization        
  Andreas Hansen         : Spin unrestricted coupled pair/coupled cluster methods 
  Ingolf Harden          : AUTO-CI MPn and infrastructure                
  Benjamin Helmich-Paris : MC-RPA, TRAH-(SCF,CASSCF), AVAS, COSX integrals, SCF dyn. polar., MC-PDFT, srDFT 
  Lee Huntington         : MR-EOM, pCC                                   
  Robert Izsak           : Overlap fitted RIJCOSX, COSX-SCS-MP3, EOM     
  Riya Kayal             : Wick's Theorem for AUTO-CI, AUTO-CI UHF-CCSDT 
  Emily Kempfer          : AUTO-CI RHF CISDT and CCSDT, approximate NEVPT4
  Christian Kollmar      : KDIIS, OOCD, Brueckner-CCSD(T), CCSD density, CASPT2, CASPT2-K, improved NEVPT2 
  Axel Koslowski         : Symmetry handling                             
  Simone Kossmann        : meta-GGA functionals, TD-DFT gradient, OOMP2, (MP2 Hessian; deprecated post 5.0) 
  Lucas Lang             : DCDCAS, Hyperfine gauge corrections, ICE-SOC+SSC
  Marvin Lechner         : AUTO-CI (C++ implementation), FIC-MRCC        
  Spencer Leger          : CASSCF response                               
  Dagmar Lenk            : GEPOL surface, SMD, ORCA-2-JSON               
  Dimitrios Liakos       : Extrapolation schemes; Compound Job, Property file
  Dimitrios Manganas     : Further ROCIS development; embedding schemes. LFT, Crystal Embedding 
  Dimitrios Pantazis     : SARC Basis sets                               
  Anastasios Papadopoulos: AUTO-CI, single reference methods and gradients 
  Taras Petrenko         : pre 6.0 DFT Hessian and TD-DFT gradient,  ECA, NRVS 
  Petra Pikulova         : Analytic Raman intensities                    
  Peter Pinski           : DLPNO-MP2, DLPNO-MP2 Gradient                 
  Shashank Vittal Rao    : ES-AILFT, MagRelax                            
  Christoph Reimann      : Effective Core Potentials                     
  Marius Retegan         : Local ZFS, SOC                                
  Christoph Riplinger    : Optimizer, TS searches, QM/MM, DLPNO-CCSD(T), (RO)-DLPNO pert. Triples 
  Michael Roemelt        : Original ROCIS implementation, recursive CI coupling coefficients
  Masaaki Saitow         : Open-shell DLPNO-CCSD energy and density      
  Barbara Sandhoefer     : DKH picture change effects                    
  Yorick L. A. Schmerwitz: GMF and freeze-and-release deltaSCF, NEB S-IDPP initial path                    
  Kantharuban Sivalingam : CASSCF convergence/infrastructure, NEVPT2, NEVPT3, NEVPT4(SD), FIC-MRCI and CEPA variants
  Bernardo de Souza      : ESD, SOC TD-DFT                               
  Georgi L. Stoychev     : AutoAux, RI-MP2 NMR, DLPNO-MP2 response, X2C  
  Van Anh Tran           : RI-MP2 g-tensors                              
  Willem Van den Heuvel  : Paramagnetic NMR                              
  Zikuan Wang            : NOTCH, Electric field optimization            
  Frank Wennmohs         : Technical directorship and infrastructure     
  Hang Xu                : AUTO-CI-Response properties                   
                                                                         
[FACCTs GmbH]                                                            
  Markus Bursch, Nicolas Foglia, Miquel Garcia-Rates, Ingolf Harden, Hagen Neugebauer, Anastasios Papadopoulos, 
  Christoph Riplinger, Bernardo de Souza, Georgi L. Stoychev                                                    
                                                                 
  APM, various basis sets, CI-OPT, improved COSX, DLPNO-Multilevel,           
  DOCKER, DRACO, updates on ESD, Fragmentator, GOAT, IRC, LR-CPCM, L-BFGS, MBIS, meta-GGA TD-DFT gradient, ML-optimized integration grids, 
  MM, NACMEs, nearIR, NEB, NEB-TS, NL-DFT gradient (VV10), 2- and 3-layer-ONIOM, interface openCOSMO-RS, QMMM,   
  Crystal-QMMM, RESP, rigid body optimization, SF, symmetry and pop. for TD-DFT, various functionals, SOLVATOR                                   
                                                                         
[Other institutions]                                                     
  V. Asgeirsson          : NEB                                           
  Christoph Bannwarth    : sTDA-DFT, sTD-DFT, PBEh-3c, B97-3c, D3        
  Giovanni Bistoni       : ETS/NOCV, ADLD/ADEX, COVALED                  
  Martin Brehm           : Molecular dynamics                            
  Ronald Cardenas        : ETS/NOCV                                      
  Martina Colucci        : COVALED                                       
  Sebastian Ehlert       : rSCAN, r2SCAN, r2SCAN-3c, D4, dhf basis sets  
  Marvin Friede          : D4 for Fr, Ra, Ac-Lr                          
  Lars Goerigk           : TD-DFT with DH, B97 family of functionals     
  Stefan Grimme          : VdW corrections, initial TS optimization, DFT functionals, gCP, sTDA/sTD-DF 
  Waldemar Hujo          : DFT-NL                                        
  H. Jonsson             : NEB                                           
  Holger Kruse           : gCP                                           
  Marcel Mueller         : wB97X-3c, vDZP basis set                      
  Hagen Neugebauer       : wr2SCAN, Native XTB                           
  Gianluca Regni         : ADLD/ADEX                                     
  Tobias Risthaus        : pre 6.0 range-separated hybrid DFT and stability analysis
  Lukas Wittmann         : regularized MP2, r2SCAN double-hybrids, wr2SCAN        
                                                                         
We gratefully acknowledge several colleagues who have allowed us to      
interface, adapt or use parts of their codes:                            
  Ed Valeev, F. Pavosevic, A. Kumar             : LibInt (2-el integral package), F12 methods 
  Garnet Chan, S. Sharma, J. Yang, R. Olivares  : DMRG                   
  Ulf Ekstrom                                   : XCFun DFT Library      
  Mihaly Kallay                                 : mrcc  (arbitrary order and MRCC methods)
  Frank Weinhold                                : gennbo (NPA and NBO analysis)           
  Simon Mueller                                 : openCOSMO-RS                            
  Christopher J. Cramer and Donald G. Truhlar   : smd solvation model                     
  S Lehtola, MJT Oliveira, MAL Marques          : LibXC Library                           
  Liviu Ungur et al                             : ANISO software                          


 Your calculation uses the libint2 library for the computation of 2-el integrals
 For citations please refer to: http://libint.valeyev.net

 Your ORCA version has been built with support for libXC version: 7.0.0
 For citations please refer to: https://libxc.gitlab.io

 This ORCA versions uses:
   CBLAS   interface :  Fast vector & matrix operations
   LAPACKE interface :  Fast linear algebra routines
   SCALAPACK package :  Parallel linear algebra routines
   Shared memory     :  Shared parallel matrices
   BLAS/LAPACK       :  OpenBLAS 0.3.29  USE64BITINT DYNAMIC_ARCH NO_AFFINITY Cooperlake SINGLE_THREADED
        Core in use  :  Cooperlake
   Copyright (c) 2011-2014, The OpenBLAS Project


  ***********************************
  * Starting time: Mon Jul 20 19:29:42 2026
  * Host name:     c1-40
  * Process ID:    415581
  * Working dir.:  /cluster/projects/nn14654k/ylvaos/TPhP_bsse/orca/opt1_bp86_ph3
  ***********************************

================================================================================



################################################################################


                                COMPOUND JOB MainJOB 
Basename: 1b_ph3_Compound_0

################################################################################

================================================================================
                                       INPUT FILE
================================================================================
NAME = 1b_ph3_Compound_0.inp
|  1> #
|  2>  
|  3> #
|  4>  
|  5> 
|  6>                          ****END OF INPUT****
================================================================================
================================================================================



################################################################################


                                COMPOUND JOB  1 
Basename: 1b_ph3_Compound_1
NOTE: please remember that MaxCore and PAL settings will be ignored.

################################################################################

================================================================================
                                       INPUT FILE
================================================================================
NAME = 1b_ph3_Compound_1.inp
|  1>   ! BP86 def2-SVP VeryTightSCF defgrid3 NOAUTOSTART
|  2>   %id "def2svp"
|  3>   * xyzfile 0 1 opt1_ph3/1b_ph3_opt.xyz
|  4> 
|  5>                          ****END OF INPUT****
================================================================================


***************************************
The coordinates will be read from file: opt1_ph3/1b_ph3_opt.xyz
***************************************


Warning: RI is on but no J-basis has been assigned. Assigning Def2/J (nothing to worry about!)
================================================================================

cite the ECPs for Ru [Def2-ECP] as follows:
Ce-Yb(ecp-28): M. Dolg, H. Stoll, H.Preuss, J. Chem. Phys., 1989, 90, 1730-1734.
Y-Cd(ecp-28), Hf-Hg(ecp-46): D. Andrae,U. Haeussermann, M. Dolg, H. Stoll, H. Preuss, Theor. Chim. Acta, 1990, 77, 123-141.
In-Sb(ecp-28), Tl-Bi(ecp-46): B. Metz, H. Stoll, M. Dolg, J. Chem. Phys., 2000, 113, 2563-2569.
Te-Xe(ecp-28), Po-Rn(ecp-46): K. A. Peterson, D. Figgen, E. Goll, H. Stoll, M. Dolg, J. Chem. Phys., 2003, 119, 11113-11123.
Rb(ecp-28), Cs(ecp-46): T. Leininger, A. Nicklass, W. Kuechle, H. Stoll, M. Dolg, A. Bergner, Chem. Phys. Lett., 1996, 255, 274-280.
Sr(ecp-28), Ba(ecp-46): M. Kaupp, P. V. Schleyer, H. Stoll and H. Preuss, J. Chem. Phys., 1991, 94, 1360-1366.
La(ecp-46): M. Dolg, H. Stoll, A. Savin, H. Preuss, Theor. Chim. Acta, 1989, 75, 173-194.
Lu(ecp-28): X. Cao, M. Dolg, J. Chem. Phys., 2001, 115, 7348-7355.

ECP parameters for Ru [Def2-ECP] have been obtained from:
TURBOMOLE (7.0.2)

----- Orbital basis set information -----
Your calculation utilizes the basis: def2-SVP
   F. Weigend and R. Ahlrichs, Phys. Chem. Chem. Phys. 7, 3297 (2005).

----- AuxJ basis set information -----
Your calculation utilizes the auxiliary basis: def2/J
   H-Rn: F. Weigend, Phys. Chem. Chem. Phys. 8, 1057 (2006).
   Fr-Lr: K. Eichkorn, F. Weigend, O. Treutler, R. Ahlrichs; Theor. Chem. Acc. 97, 119 (1997).

================================================================================
                                        WARNINGS
                       Please study these warnings very carefully!
================================================================================



                       ****************************
                       * Single Point Calculation *
                       ****************************

---------------------------------
CARTESIAN COORDINATES (ANGSTROEM)
---------------------------------
  Ru     0.259838    0.289524    0.557685
  P      2.347339    1.147117   -0.552982
  P     -1.987271    0.553807    0.734047
  P      0.182570   -2.035202    0.859356
  H     -2.604848    1.223609    1.822392
  H      0.730766    0.365625    2.251913
  H      0.607793    1.197897    1.989636
  H      0.076543    1.821305    0.076651
  H     -0.141351   -0.000418   -0.973059
  H      2.785347    1.957190    0.550544
  H      3.545614    0.358334   -0.432207
  H     -2.645271    1.270107   -0.296965
  H     -2.852445   -0.573732    0.734204
  H      1.931813   -0.069609    0.357216
  H     -0.185035   -2.666889    2.089526
  H     -0.723755   -2.722334    0.016817
  H      1.322650   -2.836611    0.608668

----------------------------
CARTESIAN COORDINATES (A.U.)
----------------------------
  NO LB      ZA    FRAG     MASS         X           Y           Z
   0 Ru   16.0000*   0   101.070    0.491023    0.547121    1.053871
   1 P    15.0000    0    30.974    4.435829    2.167736   -1.044984
   2 P    15.0000    0    30.974   -3.755399    1.046543    1.387148
   3 P    15.0000    0    30.974    0.345008   -3.845974    1.623947
   4 H     1.0000    0     1.008   -4.922448    2.312285    3.443821
   5 H     1.0000    0     1.008    1.380948    0.690932    4.255498
   6 H     1.0000    0     1.008    1.148561    2.263697    3.759867
   7 H     1.0000    0     1.008    0.144645    3.441768    0.144849
   8 H     1.0000    0     1.008   -0.267114   -0.000790   -1.838814
   9 H     1.0000    0     1.008    5.263543    3.698553    1.040376
  10 H     1.0000    0     1.008    6.700239    0.677153   -0.816753
  11 H     1.0000    0     1.008   -4.998837    2.400154   -0.561182
  12 H     1.0000    0     1.008   -5.390340   -1.084197    1.387445
  13 H     1.0000    0     1.008    3.650597   -0.131543    0.675040
  14 H     1.0000    0     1.008   -0.349666   -5.039690    3.948632
  15 H     1.0000    0     1.008   -1.367698   -5.144466    0.031780
  16 H     1.0000    0     1.008    2.499446   -5.360418    1.150216
* core charge reduced due to ECP

--------------------------------
INTERNAL COORDINATES (ANGSTROEM)
--------------------------------
 Ru     0   0   0     0.000000000000     0.00000000     0.00000000
 P      1   0   0     2.515294588010     0.00000000     0.00000000
 P      1   2   0     2.269460231249   144.72205403     0.00000000
 P      1   2   3     2.345490416798   114.96508258   142.85741145
 H      3   1   2     1.419340976148   123.05015533   258.85363191
 H      1   2   3     1.760106027943   100.85037423   233.32823619
 H      6   1   2     0.881241768060    73.56159575    72.43092920
 H      1   2   3     1.615965366941    68.86932801   336.45423125
 H      1   2   3     1.608786567011    81.27245478    61.10283496
 H      2   1   3     1.437302255745    96.08781553    99.00288279
 H      2   1   3     1.439661988550   117.83467052   191.62706486
 H      3   1   2     1.417404293918   117.51492881    18.63526612
 H      3   1   2     1.421220988340   120.68908149   136.30730142
 H      2   1   3     1.575291999114    42.49008940   188.48108401
 H      4   1   2     1.430902392961   123.82031885   132.45890104
 H      4   1   2     1.415431973291   115.19462812   251.93207031
 H      4   1   2     1.415938879893   120.77611260     8.95583470

---------------------------
INTERNAL COORDINATES (A.U.)
---------------------------
 Ru     0   0   0     0.000000000000     0.00000000     0.00000000
 P      1   0   0     4.753217917474     0.00000000     0.00000000
 P      1   2   0     4.288658308886   144.72205403     0.00000000
 P      1   2   3     4.432334537485   114.96508258   142.85741145
 H      3   1   2     2.682165735572   123.05015533   258.85363191
 H      1   2   3     3.326118359476   100.85037423   233.32823619
 H      6   1   2     1.665305599406    73.56159575    72.43092920
 H      1   2   3     3.053731985420    68.86932801   336.45423125
 H      1   2   3     3.040166019583    81.27245478    61.10283496
 H      2   1   3     2.716107635026    96.08781553    99.00288279
 H      2   1   3     2.720566883775   117.83467052   191.62706486
 H      3   1   2     2.678505936549   117.51492881    18.63526612
 H      3   1   2     2.685718443744   120.68908149   136.30730142
 H      2   1   3     2.976870459283    42.49008940   188.48108401
 H      4   1   2     2.704013647068   123.82031885   132.45890104
 H      4   1   2     2.674778790716   115.19462812   251.93207031
 H      4   1   2     2.675736705369   120.77611260     8.95583470

---------------------
BASIS SET INFORMATION
---------------------
There are 3 groups of distinct atoms

 Group   1 Type Ru  : 7s6p5d1f contracted to 5s3p2d1f pattern {31111/411/41/1}
 Group   2 Type P   : 10s7p1d contracted to 4s3p1d pattern {5311/511/1}
 Group   3 Type H   : 4s1p contracted to 2s1p pattern {31/1}

Atom   0Ru   basis set group =>   1
Atom   1P    basis set group =>   2
Atom   2P    basis set group =>   2
Atom   3P    basis set group =>   2
Atom   4H    basis set group =>   3
Atom   5H    basis set group =>   3
Atom   6H    basis set group =>   3
Atom   7H    basis set group =>   3
Atom   8H    basis set group =>   3
Atom   9H    basis set group =>   3
Atom  10H    basis set group =>   3
Atom  11H    basis set group =>   3
Atom  12H    basis set group =>   3
Atom  13H    basis set group =>   3
Atom  14H    basis set group =>   3
Atom  15H    basis set group =>   3
Atom  16H    basis set group =>   3
---------------------------------
AUXILIARY/J BASIS SET INFORMATION
---------------------------------
There are 3 groups of distinct atoms

 Group   1 Type Ru  : 11s5p5d3f3g contracted to 8s5p5d2f3g pattern {41111111/11111/11111/21/111}
 Group   2 Type P   : 14s5p5d2f1g contracted to 8s4p3d1f1g pattern {71111111/2111/311/2/1}
 Group   3 Type H   : 5s2p1d contracted to 3s1p1d pattern {311/2/1}

Atom   0Ru   basis set group =>   1
Atom   1P    basis set group =>   2
Atom   2P    basis set group =>   2
Atom   3P    basis set group =>   2
Atom   4H    basis set group =>   3
Atom   5H    basis set group =>   3
Atom   6H    basis set group =>   3
Atom   7H    basis set group =>   3
Atom   8H    basis set group =>   3
Atom   9H    basis set group =>   3
Atom  10H    basis set group =>   3
Atom  11H    basis set group =>   3
Atom  12H    basis set group =>   3
Atom  13H    basis set group =>   3
Atom  14H    basis set group =>   3
Atom  15H    basis set group =>   3
Atom  16H    basis set group =>   3
-------------------------
ECP PARAMETER INFORMATION
-------------------------

 Group 1, Type Ru ECP Def2-ECP (replacing 28 core electrons, lmax=3)

Atom   0Ru   ECP group =>   1

------------------------------------------------------------------------------
                             ORCA STARTUP CALCULATIONS
                           -- RI-GTO INTEGRALS CHOSEN --
------------------------------------------------------------------------------
------------------------------------------------------------------------------
                   ___                                                        
                  /   \      - P O W E R E D   B Y -                         
                 /     \                                                     
                 |  |  |   _    _      __       _____    __    __             
                 |  |  |  | |  | |    /  \     |  _  \  |  |  /  |          
                  \  \/   | |  | |   /    \    | | | |  |  | /  /          
                 / \  \   | |__| |  /  /\  \   | |_| |  |  |/  /          
                |  |  |   |  __  | /  /__\  \  |    /   |      \           
                |  |  |   | |  | | |   __   |  |    \   |  |\   \          
                \     /   | |  | | |  |  |  |  | |\  \  |  | \   \       
                 \___/    |_|  |_| |__|  |__|  |_| \__\ |__|  \__/        
                                                                              
                      - O R C A' S   B I G   F R I E N D -                    
                                      &                                       
                       - I N T E G R A L  F E E D E R -                       
                                                                              
 v1 FN, 2020, v2 2021, v3 2022-2024                                           
------------------------------------------------------------------------------


----------------------
SHARK INTEGRAL PACKAGE
----------------------

Number of atoms                             ...     17
Number of basis functions                   ...    150
Number of shells                            ...     74
Maximum angular momentum                    ...      3
Integral batch strategy                     ... SHARK/LIBINT Hybrid
RI-J (if used) integral strategy            ... SPLIT-RIJ (Revised 2003 algorithm where possible)
Printlevel                                  ...      1
Contraction scheme used                     ... SEGMENTED contraction
Prescreening option                         ... SCHWARTZ
   Thresh                                   ... 1.000e-12
   Tcut                                     ... 1.000e-14
   Tpresel                                  ... 1.000e-14 
Coulomb Range Separation                    ... NOT USED
Exchange Range Separation                   ... NOT USED
Multipole approximations                    ... NOT USED
Finite Nucleus Model                        ... NOT USED
CABS basis                                  ... NOT available
Auxiliary Coulomb fitting basis             ... AVAILABLE
   # of basis functions in Aux-J            ...    385
   # of shells in Aux-J                     ...    139
   Maximum angular momentum in Aux-J        ...      4
Auxiliary J/K fitting basis                 ... NOT available
Auxiliary Correlation fitting basis         ... NOT available
Auxiliary 'external' fitting basis          ... NOT available

Checking pre-screening integrals            ... done (  0.0 sec) Dimension = 74
   => SHARK Basis and OBASIS are compatible. Storing Pre-screening
Shell pair information
Shell pair cut-off parameter TPreSel        ...   1.0e-14
Total number of shell pairs                 ...      2775
Shell pairs after pre-screening             ...      2651
Total number of primitive shell pairs       ...      9714
Primitive shell pairs kept                  ...      7124
          la=0 lb=0:    913 shell pairs
          la=1 lb=0:   1013 shell pairs
          la=1 lb=1:    296 shell pairs
          la=2 lb=0:    215 shell pairs
          la=2 lb=1:    125 shell pairs
          la=2 lb=2:     15 shell pairs
          la=3 lb=0:     43 shell pairs
          la=3 lb=1:     25 shell pairs
          la=3 lb=2:      5 shell pairs
          la=3 lb=3:      1 shell pairs

Checking whether 4 symmetric matrices of dimension 150 fit in memory
:Max Core in MB      =   4096.00
 MB in use           =      9.30
 MB left             =   4086.70
 MB needed           =      0.35
 Data fit in memory  = YES
Calculating RI/J V-Matrix + Cholesky decomp.... done (  0.0 sec)
Calculating Nuclear repulsion               ... done (  0.0 sec) ENN=    424.185938457239 Eh

Diagonalization of the overlap matrix:
Smallest eigenvalue                        ... 6.468e-03
Time for diagonalization                   ...    0.010 sec
Threshold for overlap eigenvalues          ... 1.000e-07
Number of eigenvalues below threshold      ... 0
Time for construction of square roots      ...    0.003 sec
Total time needed                          ...    0.016 sec

-------------------
DFT GRID GENERATION
-------------------

General Integration Accuracy     IntAcc      ... 4.959
Radial Grid Type                 RadialGrid  ... OptM3 with GC (2021)
Angular Grid (max. ang.)         AngularGrid ... 6 (Lebedev-590)
Angular grid pruning method      GridPruning ... 4 (adaptive)
Weight generation scheme         WeightScheme... mBecke (2022)
Basis function cutoff            BFCut       ... 1.0000e-12
Integration weight cutoff        WCut        ... 1.0000e-14
Partially contracted basis set               ... off
Rotationally invariant grid construction     ... off
Angular grids for H and He will be reduced by one unit

Total number of grid points                  ...   184861
Total number of batches                      ...     2894
Average number of points per batch           ...       63
Average number of grid points per atom       ...    10874
Grids setup in   2.3 sec
Initializing property integral containers    ... done (  0.0 sec)

SHARK setup successfully completed in   2.5 seconds

Maximum memory used throughout the entire STARTUP-calculation: 62.5 MB
-------------------------------------------------------------------------------
                                 ORCA GUESS
                   Start orbitals & Density for SCF / CASSCF
-------------------------------------------------------------------------------

------------
SCF SETTINGS
------------
Hamiltonian:
 Density Functional     Method          .... DFT(GTOs)
 Exchange Functional    Exchange        .... B88
   X-Alpha parameter    XAlpha          ....  0.666667
   Becke's b parameter  XBeta           ....  0.004200
 Correlation Functional Correlation     .... P86
 LDA part of GGA corr.  LDAOpt          .... PW91-LDA
 Gradients option       PostSCFGGA      .... off
   NL short-range parameter             ....  4.400000
 RI-approximation to the Coulomb term is turned on
   Number of AuxJ basis functions       .... 385


General Settings:
 Integral files         IntName         .... 1b_ph3_Compound_1
 Hartree-Fock type      HFTyp           .... RHF
 Total Charge           Charge          ....    0
 Multiplicity           Mult            ....    1
 Number of Electrons    NEL             ....   74
 Basis Dimension        Dim             ....  150
 Nuclear Repulsion      ENuc            ....    424.1859384572 Eh

Convergence Acceleration:
 AO-DIIS                CNVDIIS         .... on
   Start iteration      DIISMaxIt       ....    12
   Startup error        DIISStart       ....  0.200000
   # of expansion vecs  DIISMaxEq       ....     5
   Bias factor          DIISBfac        ....   1.050
   Max. coefficient     DIISMaxC        ....  10.000
 MO-DIIS                CNVKDIIS        .... off
 Trust-Rad. Augm. Hess. CNVTRAH         .... auto
   Auto Start mean grad. ratio tolernc. ....  1.125000
   Auto Start start iteration           ....    50
   Auto Start num. interpolation iter.  ....    10
   Max. Number of Micro iterations      ....    24
   Max. Number of Macro iterations      .... Maxiter - #DIIS iter
   Number of Davidson start vectors     ....     2
   Converg. threshold    (grad. norm)   ....   2.000e-06
   Grad. Scal. Fac. for Micro threshold ....   0.100
   Minimum threshold for Micro iter.    ....   1.000e-02
   NR start threshold (gradient norm)   ....   1.000e-04
   Initial trust radius                 ....   0.400
   Minimum AH scaling param. (alpha)    ....   1.000
   Maximum AH scaling param. (alpha)    .... 1000.000
   Quad. conv. algorithm                .... NR
   White noise on init. David. guess    .... on
   Maximum white noise                  ....   0.010
   Pseudo random numbers                .... off
   Inactive MOs                         .... canonical
   Orbital update algorithm             .... Taylor
   Preconditioner                       .... Diag
   Full preconditioner red. dimension   ....   250
 SOSCF                 CNVSOSCF           .... on
   Start iteration     SOSCFMaxIt         ....   150
   Startup grad/error  SOSCFStart         ....  0.003300
   Hessian update      SOSCFHessUp        .... L-BFGS
   Autom. constraints  SOSCFAutoConstrain .... off
 Level Shifting         CNVShift        .... on
   Level shift para.    LevelShift      ....    0.2500
   Turn off err/grad.   ShiftErr        ....    0.0010
 Zerner damping         CNVZerner       .... off
 Static damping         CNVDamp         .... on
   Fraction old density DampFac         ....    0.7000
   Max. Damping (<1)    DampMax         ....    0.9800
   Min. Damping (>=0)   DampMin         ....    0.0000
   Turn off err/grad.   DampErr         ....    0.1000

SCF Procedure:
 Maximum # iterations   MaxIter         ....   125
 SCF integral mode      SCFMode         .... Direct
   Integral package                     .... SHARK and LIBINT hybrid scheme
 Reset frequency        DirectResetFreq ....    20
 Integral Threshold     Thresh          ....  1.000e-12 Eh
 Primitive CutOff       TCut            ....  1.000e-14 Eh

Convergence Tolerance:
 Convergence Check Mode ConvCheckMode   .... Total+1el-Energy
 Convergence forced     ConvForced      .... 0
 Energy Change          TolE            ....  1.000e-09 Eh
 1-El. energy change                    ....  1.000e-06 Eh
 Orbital Gradient       TolG            ....  2.000e-06
 Orbital Rotation angle TolX            ....  2.000e-06
 DIIS Error             TolErr          ....  1.000e-08

------------------------------
INITIAL GUESS: MODEL POTENTIAL
------------------------------
Loading Hartree-Fock densities                     ... done
Atomic calculation to generate a density for atom 0 (Ru with ECP)
  Multiplicity assumed   :    5
  Atomic configuration   : 1s2 2s2 2p6 3s2 3p6 4s2 3d10 4p6 5s2 4d6 
  Number of open shells  : 1
  Command: /cluster/projects/nn14654k/ylvaos/orca_6_1_1_linux_x86-64_shared_openmpi418/orca 1b_ph3_Compound_1_atom44.inp "" > 1b_ph3_Compound_1_atom44.out
Returned from the atomic calculation with res=0
Calculating cut-offs                               ... done
Initializing the effective Hamiltonian             ... done
Setting up the integral package (SHARK)            ... done
Starting the Coulomb interaction                   ... done (   0.1 sec)
Making the grid                                    ... done (   0.1 sec)
Mapping shells                                     ... done
Starting the XC term evaluation                    ... done (   0.1 sec)
  promolecular density results
     # of electrons  =    101.995940290
     EX              =   -201.148636533
     EC              =     -4.991098757
     EX+EC           =   -206.139735291
Transforming the Hamiltonian                       ... done (   0.0 sec)
Diagonalizing the Hamiltonian                      ... done (   0.0 sec)
Back transforming the eigenvectors                 ... done (   0.0 sec)
Now organizing SCF variables                       ... done
                      ------------------
                      INITIAL GUESS DONE (   1.6 sec)
                      ------------------
             **** ENERGY FILE WAS UPDATED (1b_ph3_Compound_1.en.tmp) ****
Finished Guess after   1.7 sec
Maximum memory used throughout the entire GUESS-calculation: 13.0 MB

-------------------------------------------------------------------------------------------
                                      ORCA LEAN-SCF
                              memory conserving SCF solver
-------------------------------------------------------------------------------------------

----------------------------------------D-I-I-S--------------------------------------------
Iteration    Energy (Eh)           Delta-E    RMSDP     MaxDP     DIISErr   Damp  Time(sec)
-------------------------------------------------------------------------------------------
               ***  Starting incremental Fock matrix formation  ***
    1    -1126.6109621298871843     0.00e+00  2.70e-03  7.47e-02  4.70e-01  0.700   0.8
    2    -1126.6375283153338387    -2.66e-02  1.76e-03  3.21e-02  3.17e-01  0.700   0.7
    3    -1126.6459071372435119    -8.38e-03  9.76e-04  2.17e-02  2.18e-01  0.700   0.7
                               ***Turning on AO-DIIS***
    4    -1126.6532364850913837    -7.33e-03  4.75e-04  1.73e-02  1.56e-01  0.700   0.7
    5    -1126.6578326542503419    -4.60e-03  2.85e-04  1.32e-02  1.10e-01  0.700   0.7
    6    -1126.6609449965521890    -3.11e-03  2.17e-04  1.03e-02  7.71e-02  0.700   0.7
    7    -1126.6631856983019588    -2.24e-03  6.07e-04  2.10e-02  5.34e-02  0.000   0.7
    8    -1126.6682685026212312    -5.08e-03  2.35e-04  8.17e-03  7.48e-03  0.000   0.7
    9    -1126.6683854668694948    -1.17e-04  1.17e-04  3.60e-03  4.38e-03  0.000   0.7
                              *** Initializing SOSCF ***
---------------------------------------S-O-S-C-F--------------------------------------
Iteration    Energy (Eh)           Delta-E    RMSDP     MaxDP     MaxGrad    Time(sec)
--------------------------------------------------------------------------------------
   10    -1126.6684273874504925    -4.19e-05  2.28e-05  5.11e-04  1.22e-03     0.6
               *** Restarting incremental Fock matrix formation ***
   11    -1126.6684312887432498    -3.90e-06  3.89e-05  6.42e-04  8.47e-05     0.8
   12    -1126.6684294556896475     1.83e-06  2.66e-05  8.09e-04  2.59e-04     0.6
   13    -1126.6684312327827229    -1.78e-06  3.63e-05  8.07e-04  1.06e-04     0.6
   14    -1126.6684295521540662     1.68e-06  2.63e-05  5.60e-04  2.19e-04     0.6
   15    -1126.6684317154513337    -2.16e-06  4.12e-06  1.24e-04  1.18e-05     0.6
   16    -1126.6684317087797353     6.67e-09  2.47e-06  7.89e-05  1.64e-05     0.6
   17    -1126.6684317242165889    -1.54e-08  4.72e-07  9.02e-06  1.47e-06     0.6
   18    -1126.6684317240876680     1.29e-10  3.00e-07  6.16e-06  2.32e-06     0.6
                 **** Energy Check signals convergence ****

               *****************************************************
               *                     SUCCESS                       *
               *           SCF CONVERGED AFTER  18 CYCLES          *
               *****************************************************

             **** ENERGY FILE WAS UPDATED (1b_ph3_Compound_1.en.tmp) ****

----------------
TOTAL SCF ENERGY
----------------

Total Energy       :      -1126.66843172437439 Eh          -30658.20666 eV

Components:
Nuclear Repulsion  :        424.18593845723882 Eh           11542.68620 eV
Electronic Energy  :      -1550.85437018161315 Eh          -42200.89286 eV
One Electron Energy:      -2434.35479961199007 Eh          -66242.16178 eV
Two Electron Energy:        883.50042943037693 Eh           24041.26892 eV

Virial components:
Potential Energy   :      -2188.35053328455933 Eh          -59548.04537 eV
Kinetic Energy     :       1061.68210156018495 Eh           28889.83871 eV
Virial Ratio       :          2.06121072406579

DFT components:
N(Alpha)           :       36.999997316032 electrons
N(Beta)            :       36.999997316032 electrons
N(Total)           :       73.999994632063 electrons
E(X)               :      -81.752647438821 Eh       
E(C)               :       -3.091590190539 Eh       
E(XC)              :      -84.844237629360 Eh       

---------------
SCF CONVERGENCE
---------------

  Last Energy change         ...   -1.2892e-10  Tolerance :   1.0000e-09
  Last MAX-Density change    ...    6.1637e-06  Tolerance :   1.0000e-08
  Last RMS-Density change    ...    2.9959e-07  Tolerance :   1.0000e-09
  Last DIIS Error            ...    1.2176e-03  Tolerance :   1.0000e-08
  Last Orbital Gradient      ...    2.3227e-06  Tolerance :   2.0000e-06
  Last Orbital Rotation      ...    3.3438e-06  Tolerance :   2.0000e-06


----------------
ORBITAL ENERGIES
----------------

  NO   OCC          E(Eh)            E(eV) 
   0   2.0000     -76.386955     -2078.5947 
   1   2.0000     -76.381498     -2078.4462 
   2   2.0000     -76.341471     -2077.3570 
   3   2.0000      -6.353192      -172.8791 
   4   2.0000      -6.348750      -172.7583 
   5   2.0000      -6.309189      -171.6817 
   6   2.0000      -4.574664      -124.4829 
   7   2.0000      -4.574387      -124.4754 
   8   2.0000      -4.571963      -124.4094 
   9   2.0000      -4.570030      -124.3568 
  10   2.0000      -4.570024      -124.3567 
  11   2.0000      -4.567404      -124.2854 
  12   2.0000      -4.530720      -123.2872 
  13   2.0000      -4.529904      -123.2650 
  14   2.0000      -4.527761      -123.2067 
  15   2.0000      -2.856053       -77.7172 
  16   2.0000      -1.740742       -47.3680 
  17   2.0000      -1.735784       -47.2331 
  18   2.0000      -1.730763       -47.0964 
  19   2.0000      -0.615874       -16.7588 
  20   2.0000      -0.606130       -16.4936 
  21   2.0000      -0.577868       -15.7246 
  22   2.0000      -0.433308       -11.7909 
  23   2.0000      -0.383146       -10.4259 
  24   2.0000      -0.375083       -10.2065 
  25   2.0000      -0.370895       -10.0926 
  26   2.0000      -0.366727        -9.9791 
  27   2.0000      -0.361746        -9.8436 
  28   2.0000      -0.342914        -9.3312 
  29   2.0000      -0.321505        -8.7486 
  30   2.0000      -0.297853        -8.1050 
  31   2.0000      -0.278995        -7.5918 
  32   2.0000      -0.249266        -6.7829 
  33   2.0000      -0.230283        -6.2663 
  34   2.0000      -0.206352        -5.6151 
  35   2.0000      -0.199483        -5.4282 
  36   2.0000      -0.178538        -4.8583 
  37   0.0000      -0.040638        -1.1058 
  38   0.0000      -0.023548        -0.6408 
  39   0.0000      -0.010529        -0.2865 
  40   0.0000       0.000900         0.0245 
  41   0.0000       0.008251         0.2245 
  42   0.0000       0.017672         0.4809 
  43   0.0000       0.018675         0.5082 
  44   0.0000       0.028552         0.7769 
  45   0.0000       0.034773         0.9462 
  46   0.0000       0.042977         1.1695 
  47   0.0000       0.067225         1.8293 
*Only the first 10 virtual orbitals were printed.

                    ********************************
                    * MULLIKEN POPULATION ANALYSIS *
                    ********************************

-----------------------
MULLIKEN ATOMIC CHARGES
-----------------------
   0 Ru:   -0.697518
   1 P :    0.130398
   2 P :    0.231301
   3 P :    0.160649
   4 H :    0.011395
   5 H :    0.020915
   6 H :    0.061221
   7 H :    0.009206
   8 H :   -0.025089
   9 H :    0.009270
  10 H :   -0.031049
  11 H :    0.036347
  12 H :    0.001023
  13 H :    0.030209
  14 H :    0.012509
  15 H :    0.020148
  16 H :    0.019066
Sum of atomic charges:   -0.0000000

--------------------------------
MULLIKEN REDUCED ORBITAL CHARGES
--------------------------------
  0 Rus       :     2.582744  s :     2.582744
      pz      :     2.280321  p :     6.732399
      px      :     2.205788
      py      :     2.246290
      dz2     :     1.287720  d :     7.375294
      dxz     :     1.655966
      dyz     :     1.594665
      dx2y2   :     1.135165
      dxy     :     1.701778
      f0      :     0.001303  f :     0.007081
      f+1     :     0.001494
      f-1     :     0.001161
      f+2     :     0.000590
      f-2     :     0.000245
      f+3     :     0.001214
      f-3     :     0.001074

  1 P s       :     5.738010  s :     5.738010
      pz      :     3.210690  p :     9.009509
      px      :     2.918490
      py      :     2.880329
      dz2     :     0.018595  d :     0.122083
      dxz     :     0.018149
      dyz     :     0.030764
      dx2y2   :     0.017953
      dxy     :     0.036622

  2 P s       :     5.501156  s :     5.501156
      pz      :     2.964200  p :     9.095889
      px      :     3.175835
      py      :     2.955854
      dz2     :     0.016543  d :     0.171653
      dxz     :     0.057340
      dyz     :     0.025814
      dx2y2   :     0.006894
      dxy     :     0.065062

  3 P s       :     5.541597  s :     5.541597
      pz      :     2.947088  p :     9.144999
      px      :     2.957997
      py      :     3.239915
      dz2     :     0.019613  d :     0.152755
      dxz     :     0.017258
      dyz     :     0.051401
      dx2y2   :     0.007340
      dxy     :     0.057143

  4 H s       :     0.971813  s :     0.971813
      pz      :     0.007617  p :     0.016792
      px      :     0.004811
      py      :     0.004364

  5 H s       :     0.958811  s :     0.958811
      pz      :     0.006285  p :     0.020274
      px      :     0.004157
      py      :     0.009832

  6 H s       :     0.916862  s :     0.916862
      pz      :     0.005917  p :     0.021917
      px      :     0.004047
      py      :     0.011953

  7 H s       :     0.975541  s :     0.975541
      pz      :     0.004448  p :     0.015254
      px      :     0.003925
      py      :     0.006881

  8 H s       :     1.011455  s :     1.011455
      pz      :     0.006690  p :     0.013635
      px      :     0.003569
      py      :     0.003376

  9 H s       :     0.973866  s :     0.973866
      pz      :     0.007854  p :     0.016864
      px      :     0.003635
      py      :     0.005374

 10 H s       :     1.012805  s :     1.012805
      pz      :     0.004566  p :     0.018244
      px      :     0.008503
      py      :     0.005176

 11 H s       :     0.947024  s :     0.947024
      pz      :     0.007353  p :     0.016629
      px      :     0.004619
      py      :     0.004657

 12 H s       :     0.982284  s :     0.982284
      pz      :     0.002353  p :     0.016693
      px      :     0.006412
      py      :     0.007927

 13 H s       :     0.940871  s :     0.940871
      pz      :     0.008837  p :     0.028920
      px      :     0.008720
      py      :     0.011362

 14 H s       :     0.971051  s :     0.971051
      pz      :     0.008762  p :     0.016440
      px      :     0.002771
      py      :     0.004907

 15 H s       :     0.963064  s :     0.963064
      pz      :     0.005650  p :     0.016788
      px      :     0.005902
      py      :     0.005236

 16 H s       :     0.964013  s :     0.964013
      pz      :     0.002611  p :     0.016920
      px      :     0.008219
      py      :     0.006091



                     *******************************
                     * LOEWDIN POPULATION ANALYSIS *
                     *******************************

----------------------
LOEWDIN ATOMIC CHARGES
----------------------
   0 Ru:   -1.599338
   1 P :    0.385717
   2 P :    0.694461
   3 P :    0.629474
   4 H :   -0.047634
   5 H :    0.094066
   6 H :    0.108174
   7 H :    0.012685
   8 H :   -0.001588
   9 H :   -0.042816
  10 H :   -0.065801
  11 H :   -0.032809
  12 H :   -0.051563
  13 H :    0.048096
  14 H :   -0.048581
  15 H :   -0.040456
  16 H :   -0.042087

-------------------------------
LOEWDIN REDUCED ORBITAL CHARGES
-------------------------------
  0 Rus       :     2.443243  s :     2.443243
      pz      :     2.448002  p :     7.350524
      px      :     2.416355
      py      :     2.486167
      dz2     :     1.416674  d :     7.793460
      dxz     :     1.698817
      dyz     :     1.641132
      dx2y2   :     1.304083
      dxy     :     1.732754
      f0      :     0.002241  f :     0.012111
      f+1     :     0.002638
      f-1     :     0.001932
      f+2     :     0.000927
      f-2     :     0.000393
      f+3     :     0.002018
      f-3     :     0.001962

  1 P s       :     5.383796  s :     5.383796
      pz      :     3.255456  p :     9.066196
      px      :     2.909559
      py      :     2.901181
      dz2     :     0.023522  d :     0.164291
      dxz     :     0.021881
      dyz     :     0.042276
      dx2y2   :     0.026418
      dxy     :     0.050194

  2 P s       :     5.113001  s :     5.113001
      pz      :     2.929694  p :     8.952590
      px      :     3.095449
      py      :     2.927448
      dz2     :     0.024052  d :     0.239948
      dxz     :     0.077724
      dyz     :     0.038415
      dx2y2   :     0.010579
      dxy     :     0.089177

  3 P s       :     5.151891  s :     5.151891
      pz      :     2.923261  p :     9.004747
      px      :     2.932227
      py      :     3.149259
      dz2     :     0.028980  d :     0.213888
      dxz     :     0.025977
      dyz     :     0.069192
      dx2y2   :     0.011205
      dxy     :     0.078533

  4 H s       :     1.003415  s :     1.003415
      pz      :     0.020385  p :     0.044219
      px      :     0.012927
      py      :     0.010907

  5 H s       :     0.840450  s :     0.840450
      pz      :     0.013847  p :     0.065484
      px      :     0.010047
      py      :     0.041589

  6 H s       :     0.821680  s :     0.821680
      pz      :     0.021912  p :     0.070146
      px      :     0.011375
      py      :     0.036860

  7 H s       :     0.941186  s :     0.941186
      pz      :     0.012671  p :     0.046129
      px      :     0.012523
      py      :     0.020936

  8 H s       :     0.956762  s :     0.956762
      pz      :     0.019660  p :     0.044825
      px      :     0.013746
      py      :     0.011418

  9 H s       :     0.997528  s :     0.997528
      pz      :     0.024483  p :     0.045288
      px      :     0.008627
      py      :     0.012178

 10 H s       :     1.017915  s :     1.017915
      pz      :     0.010915  p :     0.047886
      px      :     0.022531
      py      :     0.014441

 11 H s       :     0.989191  s :     0.989191
      pz      :     0.019294  p :     0.043618
      px      :     0.012590
      py      :     0.011734

 12 H s       :     1.007925  s :     1.007925
      pz      :     0.005023  p :     0.043638
      px      :     0.017620
      py      :     0.020995

 13 H s       :     0.875051  s :     0.875051
      pz      :     0.023162  p :     0.076853
      px      :     0.025951
      py      :     0.027739

 14 H s       :     1.004846  s :     1.004846
      pz      :     0.023610  p :     0.043735
      px      :     0.006449
      py      :     0.013675

 15 H s       :     0.995758  s :     0.995758
      pz      :     0.014443  p :     0.044698
      px      :     0.015526
      py      :     0.014728

 16 H s       :     0.996979  s :     0.996979
      pz      :     0.005788  p :     0.045108
      px      :     0.021854
      py      :     0.017466



                      *****************************
                      * MAYER POPULATION ANALYSIS *
                      *****************************

  NA   - Mulliken gross atomic population
  ZA   - Total nuclear charge
  QA   - Mulliken gross atomic charge
  VA   - Mayer's total valence
  BVA  - Mayer's bonded valence
  FA   - Mayer's free valence

  ATOM       NA         ZA         QA         VA         BVA        FA
  0 Ru    16.6975    16.0000    -0.6975     5.1833     5.1833     0.0000
  1 P     14.8696    15.0000     0.1304     3.0871     3.0871    -0.0000
  2 P     14.7687    15.0000     0.2313     3.8986     3.8986    -0.0000
  3 P     14.8394    15.0000     0.1606     3.7135     3.7135    -0.0000
  4 H      0.9886     1.0000     0.0114     0.9585     0.9585    -0.0000
  5 H      0.9791     1.0000     0.0209     1.0058     1.0058     0.0000
  6 H      0.9388     1.0000     0.0612     0.9957     0.9957     0.0000
  7 H      0.9908     1.0000     0.0092     0.9897     0.9897     0.0000
  8 H      1.0251     1.0000    -0.0251     0.9911     0.9911     0.0000
  9 H      0.9907     1.0000     0.0093     0.9525     0.9525    -0.0000
 10 H      1.0310     1.0000    -0.0310     0.9492     0.9492    -0.0000
 11 H      0.9637     1.0000     0.0363     0.9616     0.9616     0.0000
 12 H      0.9990     1.0000     0.0010     0.9618     0.9618    -0.0000
 13 H      0.9698     1.0000     0.0302     0.9858     0.9858     0.0000
 14 H      0.9875     1.0000     0.0125     0.9607     0.9607     0.0000
 15 H      0.9799     1.0000     0.0201     0.9643     0.9643    -0.0000
 16 H      0.9809     1.0000     0.0191     0.9653     0.9653    -0.0000

  Mayer bond orders larger than 0.100000
B(  0-Ru,  1-P ) :   0.5716 B(  0-Ru,  2-P ) :   0.9253 B(  0-Ru,  3-P ) :   0.7444 
B(  0-Ru,  5-H ) :   0.3964 B(  0-Ru,  6-H ) :   0.4053 B(  0-Ru,  7-H ) :   0.7405 
B(  0-Ru,  8-H ) :   0.8236 B(  0-Ru, 13-H ) :   0.3761 B(  1-P ,  9-H ) :   0.9359 
B(  1-P , 10-H ) :   0.8797 B(  1-P , 13-H ) :   0.5541 B(  2-P ,  4-H ) :   0.9084 
B(  2-P , 11-H ) :   0.9281 B(  2-P , 12-H ) :   0.9115 B(  3-P , 14-H ) :   0.9143 
B(  3-P , 15-H ) :   0.9267 B(  3-P , 16-H ) :   0.9280 B(  5-H ,  6-H ) :   0.5468 


-------
TIMINGS
-------

Total SCF time: 0 days 0 hours 0 min 12 sec 

Total time                  ....      12.462 sec
Sum of individual times     ....      11.888 sec  ( 95.4%)

SCF preparation             ....       0.046 sec  (  0.4%)
Fock matrix formation       ....      11.686 sec  ( 93.8%)
  Startup                   ....       0.003 sec  (  0.0% of F)
  Split-RI-J                ....       1.962 sec  ( 16.8% of F)
  XC integration            ....      10.139 sec  ( 86.8% of F)
    XC Preparation          ....       0.000 sec  (  0.0% of XC)
    Basis function eval.    ....       3.807 sec  ( 37.5% of XC)
    Density eval.           ....       1.982 sec  ( 19.6% of XC)
    XC-Functional eval.     ....       0.829 sec  (  8.2% of XC)
    XC-Potential eval.      ....       3.029 sec  ( 29.9% of XC)
Diagonalization             ....       0.000 sec  (  0.0%)
Density matrix formation    ....       0.040 sec  (  0.3%)
Total Energy calculation    ....       0.006 sec  (  0.0%)
Population analysis         ....       0.005 sec  (  0.0%)
Orbital Transformation      ....       0.008 sec  (  0.1%)
Orbital Orthonormalization  ....       0.000 sec  (  0.0%)
DIIS solution               ....       0.056 sec  (  0.5%)
SOSCF solution              ....       0.042 sec  (  0.3%)
Finished LeanSCF after  12.5 sec

Maximum memory used throughout the entire LEANSCF-calculation: 26.2 MB

-------------------------   --------------------
FINAL SINGLE POINT ENERGY     -1126.668431724374
-------------------------   --------------------


------------------------------------------------------------------------------
                              ORCA PROPERTY CALCULATIONS
------------------------------------------------------------------------------

GBWName                                 ... 1b_ph3_Compound_1.gbw
Number of atoms                         ...     17
Number of basis functions               ...    150
Max core memory                         ...   4096 MB

Electric properties:
Dipole moment                           ... YES
Quadrupole moment                       ...  NO
Static polarizability (Dipole/Dipole)   ...  NO
Static polarizability (Dipole/Quad.)    ...  NO
Static polarizability (Quad./Quad.)     ...  NO
Static polarizability (Velocity)        ...  NO
Static hyperpolarizability              ...  NO

Atomic electric properties:
Dipole moment                           ...  NO
Quadrupole moment                       ...  NO
Static polarizability                   ...  NO

Choice of electric origin               ... Center of mass
Position of electric origin             ...     0.410000     0.166322     0.889282

General magnetic properties:
Magnetizability                         ...  NO

EPR properties:
g-Tensor (aka g-matrix)                 ...  NO
Zero-Field splitting spin-orbit         ...  NO
Zero-field splitting spin-spin          ...  NO
Hyperfine couplings                     ...  NO (   0 nuclei)
Quadrupole couplings                    ...  NO (   0 nuclei)
Contact density                         ...  NO (   0 nuclei)

NMR properties:
Chemical shifts                         ...  NO (   0 nuclei)
Spin-rotation constants                 ...  NO (   0 nuclei)
Spin-spin couplings                     ...  NO (   0 nuclei,    0 pairs)

Choice of magnetic origin               ... GIAO
Position of magnetic origin             ...     0.000000     0.000000     0.000000

Properties with geometric perturbations:
SCF Hessian                             ...  NO
IR spectrum                             ...  NO
VCD spectrum                            ...  NO
X-ray spectroscopy properties:
SCF XES/XAS/RIXS spectra                ...  NO

SCF SOC stabilization energy            ...  NO
Diagonal Born-Oppenheimer correction    ...  NO

-------------
DIPOLE MOMENT
-------------

Method             : SCF
Type of density    : Electron Density
Multiplicity       :   1
Irrep              :   0
Energy             : -1126.6684317243743862 Eh
Basis              : AO
                                X                 Y                 Z
Electronic contribution:      2.832037430      13.402741535       3.656293484
Nuclear contribution   :     -3.610203481     -14.305885018      -2.832519409
                        -----------------------------------------
Total Dipole Moment    :     -0.778166050      -0.903143484       0.823774075
                        -----------------------------------------
Magnitude (a.u.)       :      1.449073594
Magnitude (Debye)      :      3.683252364



--------------------
Rotational spectrum 
--------------------
 
Rotational constants in cm-1:             0.073497             0.041550             0.028306 
Rotational constants in MHz :          2203.383497          1245.623361           848.604007 

Dipole components along the rotational axes: 
x,y,z [a.u.] :    -1.239932     0.628689     0.408818 
x,y,z [Debye]:    -3.151658     1.598001     1.039132 

 

Dipole moment calculation done in   0.0 sec 

Maximum memory used throughout the entire PROP-calculation: 9.7 MB

Timings for individual modules:

Sum of individual times          ...       16.910 sec (=   0.282 min)
Startup calculation              ...        2.653 sec (=   0.044 min)  15.7 %
SCF iterations                   ...       14.211 sec (=   0.237 min)  84.0 %
Property calculations            ...        0.045 sec (=   0.001 min)   0.3 %


################################################################################


                                COMPOUND JOB  2 
Basename: 1b_ph3_Compound_2
NOTE: please remember that MaxCore and PAL settings will be ignored.

################################################################################

================================================================================
                                       INPUT FILE
================================================================================
NAME = 1b_ph3_Compound_2.inp
|  1>   ! BP86 def2-TZVP VeryTightSCF defgrid3 NOAUTOSTART
|  2>   %id "def2-tzvp"
|  3>   * xyzfile 0 1 opt1_ph3/1b_ph3_opt.xyz
|  4> 
|  5>                          ****END OF INPUT****
================================================================================


***************************************
The coordinates will be read from file: opt1_ph3/1b_ph3_opt.xyz
***************************************


Warning: RI is on but no J-basis has been assigned. Assigning Def2/J (nothing to worry about!)
================================================================================

cite the ECPs for Ru [Def2-ECP] as follows:
Ce-Yb(ecp-28): M. Dolg, H. Stoll, H.Preuss, J. Chem. Phys., 1989, 90, 1730-1734.
Y-Cd(ecp-28), Hf-Hg(ecp-46): D. Andrae,U. Haeussermann, M. Dolg, H. Stoll, H. Preuss, Theor. Chim. Acta, 1990, 77, 123-141.
In-Sb(ecp-28), Tl-Bi(ecp-46): B. Metz, H. Stoll, M. Dolg, J. Chem. Phys., 2000, 113, 2563-2569.
Te-Xe(ecp-28), Po-Rn(ecp-46): K. A. Peterson, D. Figgen, E. Goll, H. Stoll, M. Dolg, J. Chem. Phys., 2003, 119, 11113-11123.
Rb(ecp-28), Cs(ecp-46): T. Leininger, A. Nicklass, W. Kuechle, H. Stoll, M. Dolg, A. Bergner, Chem. Phys. Lett., 1996, 255, 274-280.
Sr(ecp-28), Ba(ecp-46): M. Kaupp, P. V. Schleyer, H. Stoll and H. Preuss, J. Chem. Phys., 1991, 94, 1360-1366.
La(ecp-46): M. Dolg, H. Stoll, A. Savin, H. Preuss, Theor. Chim. Acta, 1989, 75, 173-194.
Lu(ecp-28): X. Cao, M. Dolg, J. Chem. Phys., 2001, 115, 7348-7355.

ECP parameters for Ru [Def2-ECP] have been obtained from:
TURBOMOLE (7.0.2)

----- Orbital basis set information -----
Your calculation utilizes the basis: def2-TZVP
   F. Weigend and R. Ahlrichs, Phys. Chem. Chem. Phys. 7, 3297 (2005).

----- AuxJ basis set information -----
Your calculation utilizes the auxiliary basis: def2/J
   H-Rn: F. Weigend, Phys. Chem. Chem. Phys. 8, 1057 (2006).
   Fr-Lr: K. Eichkorn, F. Weigend, O. Treutler, R. Ahlrichs; Theor. Chem. Acc. 97, 119 (1997).

================================================================================
                                        WARNINGS
                       Please study these warnings very carefully!
================================================================================



                       ****************************
                       * Single Point Calculation *
                       ****************************

---------------------------------
CARTESIAN COORDINATES (ANGSTROEM)
---------------------------------
  Ru     0.259838    0.289524    0.557685
  P      2.347339    1.147117   -0.552982
  P     -1.987271    0.553807    0.734047
  P      0.182570   -2.035202    0.859356
  H     -2.604848    1.223609    1.822392
  H      0.730766    0.365625    2.251913
  H      0.607793    1.197897    1.989636
  H      0.076543    1.821305    0.076651
  H     -0.141351   -0.000418   -0.973059
  H      2.785347    1.957190    0.550544
  H      3.545614    0.358334   -0.432207
  H     -2.645271    1.270107   -0.296965
  H     -2.852445   -0.573732    0.734204
  H      1.931813   -0.069609    0.357216
  H     -0.185035   -2.666889    2.089526
  H     -0.723755   -2.722334    0.016817
  H      1.322650   -2.836611    0.608668

----------------------------
CARTESIAN COORDINATES (A.U.)
----------------------------
  NO LB      ZA    FRAG     MASS         X           Y           Z
   0 Ru   16.0000*   0   101.070    0.491023    0.547121    1.053871
   1 P    15.0000    0    30.974    4.435829    2.167736   -1.044984
   2 P    15.0000    0    30.974   -3.755399    1.046543    1.387148
   3 P    15.0000    0    30.974    0.345008   -3.845974    1.623947
   4 H     1.0000    0     1.008   -4.922448    2.312285    3.443821
   5 H     1.0000    0     1.008    1.380948    0.690932    4.255498
   6 H     1.0000    0     1.008    1.148561    2.263697    3.759867
   7 H     1.0000    0     1.008    0.144645    3.441768    0.144849
   8 H     1.0000    0     1.008   -0.267114   -0.000790   -1.838814
   9 H     1.0000    0     1.008    5.263543    3.698553    1.040376
  10 H     1.0000    0     1.008    6.700239    0.677153   -0.816753
  11 H     1.0000    0     1.008   -4.998837    2.400154   -0.561182
  12 H     1.0000    0     1.008   -5.390340   -1.084197    1.387445
  13 H     1.0000    0     1.008    3.650597   -0.131543    0.675040
  14 H     1.0000    0     1.008   -0.349666   -5.039690    3.948632
  15 H     1.0000    0     1.008   -1.367698   -5.144466    0.031780
  16 H     1.0000    0     1.008    2.499446   -5.360418    1.150216
* core charge reduced due to ECP

--------------------------------
INTERNAL COORDINATES (ANGSTROEM)
--------------------------------
 Ru     0   0   0     0.000000000000     0.00000000     0.00000000
 P      1   0   0     2.515294588010     0.00000000     0.00000000
 P      1   2   0     2.269460231249   144.72205403     0.00000000
 P      1   2   3     2.345490416798   114.96508258   142.85741145
 H      3   1   2     1.419340976148   123.05015533   258.85363191
 H      1   2   3     1.760106027943   100.85037423   233.32823619
 H      6   1   2     0.881241768060    73.56159575    72.43092920
 H      1   2   3     1.615965366941    68.86932801   336.45423125
 H      1   2   3     1.608786567011    81.27245478    61.10283496
 H      2   1   3     1.437302255745    96.08781553    99.00288279
 H      2   1   3     1.439661988550   117.83467052   191.62706486
 H      3   1   2     1.417404293918   117.51492881    18.63526612
 H      3   1   2     1.421220988340   120.68908149   136.30730142
 H      2   1   3     1.575291999114    42.49008940   188.48108401
 H      4   1   2     1.430902392961   123.82031885   132.45890104
 H      4   1   2     1.415431973291   115.19462812   251.93207031
 H      4   1   2     1.415938879893   120.77611260     8.95583470

---------------------------
INTERNAL COORDINATES (A.U.)
---------------------------
 Ru     0   0   0     0.000000000000     0.00000000     0.00000000
 P      1   0   0     4.753217917474     0.00000000     0.00000000
 P      1   2   0     4.288658308886   144.72205403     0.00000000
 P      1   2   3     4.432334537485   114.96508258   142.85741145
 H      3   1   2     2.682165735572   123.05015533   258.85363191
 H      1   2   3     3.326118359476   100.85037423   233.32823619
 H      6   1   2     1.665305599406    73.56159575    72.43092920
 H      1   2   3     3.053731985420    68.86932801   336.45423125
 H      1   2   3     3.040166019583    81.27245478    61.10283496
 H      2   1   3     2.716107635026    96.08781553    99.00288279
 H      2   1   3     2.720566883775   117.83467052   191.62706486
 H      3   1   2     2.678505936549   117.51492881    18.63526612
 H      3   1   2     2.685718443744   120.68908149   136.30730142
 H      2   1   3     2.976870459283    42.49008940   188.48108401
 H      4   1   2     2.704013647068   123.82031885   132.45890104
 H      4   1   2     2.674778790716   115.19462812   251.93207031
 H      4   1   2     2.675736705369   120.77611260     8.95583470

---------------------
BASIS SET INFORMATION
---------------------
There are 3 groups of distinct atoms

 Group   1 Type Ru  : 7s7p5d1f contracted to 6s4p3d1f pattern {211111/4111/311/1}
 Group   2 Type P   : 14s9p3d1f contracted to 5s5p2d1f pattern {73211/51111/21/1}
 Group   3 Type H   : 5s1p contracted to 3s1p pattern {311/1}

Atom   0Ru   basis set group =>   1
Atom   1P    basis set group =>   2
Atom   2P    basis set group =>   2
Atom   3P    basis set group =>   2
Atom   4H    basis set group =>   3
Atom   5H    basis set group =>   3
Atom   6H    basis set group =>   3
Atom   7H    basis set group =>   3
Atom   8H    basis set group =>   3
Atom   9H    basis set group =>   3
Atom  10H    basis set group =>   3
Atom  11H    basis set group =>   3
Atom  12H    basis set group =>   3
Atom  13H    basis set group =>   3
Atom  14H    basis set group =>   3
Atom  15H    basis set group =>   3
Atom  16H    basis set group =>   3
---------------------------------
AUXILIARY/J BASIS SET INFORMATION
---------------------------------
There are 3 groups of distinct atoms

 Group   1 Type Ru  : 11s5p5d3f3g contracted to 8s5p5d2f3g pattern {41111111/11111/11111/21/111}
 Group   2 Type P   : 14s5p5d2f1g contracted to 8s4p3d1f1g pattern {71111111/2111/311/2/1}
 Group   3 Type H   : 5s2p1d contracted to 3s1p1d pattern {311/2/1}

Atom   0Ru   basis set group =>   1
Atom   1P    basis set group =>   2
Atom   2P    basis set group =>   2
Atom   3P    basis set group =>   2
Atom   4H    basis set group =>   3
Atom   5H    basis set group =>   3
Atom   6H    basis set group =>   3
Atom   7H    basis set group =>   3
Atom   8H    basis set group =>   3
Atom   9H    basis set group =>   3
Atom  10H    basis set group =>   3
Atom  11H    basis set group =>   3
Atom  12H    basis set group =>   3
Atom  13H    basis set group =>   3
Atom  14H    basis set group =>   3
Atom  15H    basis set group =>   3
Atom  16H    basis set group =>   3
-------------------------
ECP PARAMETER INFORMATION
-------------------------

 Group 1, Type Ru ECP Def2-ECP (replacing 28 core electrons, lmax=3)

Atom   0Ru   ECP group =>   1

------------------------------------------------------------------------------
                             ORCA STARTUP CALCULATIONS
                           -- RI-GTO INTEGRALS CHOSEN --
------------------------------------------------------------------------------
------------------------------------------------------------------------------
                   ___                                                        
                  /   \      - P O W E R E D   B Y -                         
                 /     \                                                     
                 |  |  |   _    _      __       _____    __    __             
                 |  |  |  | |  | |    /  \     |  _  \  |  |  /  |          
                  \  \/   | |  | |   /    \    | | | |  |  | /  /          
                 / \  \   | |__| |  /  /\  \   | |_| |  |  |/  /          
                |  |  |   |  __  | /  /__\  \  |    /   |      \           
                |  |  |   | |  | | |   __   |  |    \   |  |\   \          
                \     /   | |  | | |  |  |  |  | |\  \  |  | \   \       
                 \___/    |_|  |_| |__|  |__|  |_| \__\ |__|  \__/        
                                                                              
                      - O R C A' S   B I G   F R I E N D -                    
                                      &                                       
                       - I N T E G R A L  F E E D E R -                       
                                                                              
 v1 FN, 2020, v2 2021, v3 2022-2024                                           
------------------------------------------------------------------------------


----------------------
SHARK INTEGRAL PACKAGE
----------------------

Number of atoms                             ...     17
Number of basis functions                   ...    229
Number of shells                            ...    105
Maximum angular momentum                    ...      3
Integral batch strategy                     ... SHARK/LIBINT Hybrid
RI-J (if used) integral strategy            ... SPLIT-RIJ (Revised 2003 algorithm where possible)
Printlevel                                  ...      1
Contraction scheme used                     ... SEGMENTED contraction
Prescreening option                         ... SCHWARTZ
   Thresh                                   ... 1.000e-12
   Tcut                                     ... 1.000e-14
   Tpresel                                  ... 1.000e-14 
Coulomb Range Separation                    ... NOT USED
Exchange Range Separation                   ... NOT USED
Multipole approximations                    ... NOT USED
Finite Nucleus Model                        ... NOT USED
CABS basis                                  ... NOT available
Auxiliary Coulomb fitting basis             ... AVAILABLE
   # of basis functions in Aux-J            ...    385
   # of shells in Aux-J                     ...    139
   Maximum angular momentum in Aux-J        ...      4
Auxiliary J/K fitting basis                 ... NOT available
Auxiliary Correlation fitting basis         ... NOT available
Auxiliary 'external' fitting basis          ... NOT available

Checking pre-screening integrals            ... done (  0.0 sec) Dimension = 105
   => SHARK Basis and OBASIS are compatible. Storing Pre-screening
Shell pair information
Shell pair cut-off parameter TPreSel        ...   1.0e-14
Total number of shell pairs                 ...      5565
Shell pairs after pre-screening             ...      5126
Total number of primitive shell pairs       ...     16267
Primitive shell pairs kept                  ...     11448
          la=0 lb=0:   1666 shell pairs
          la=1 lb=0:   1727 shell pairs
          la=1 lb=1:    464 shell pairs
          la=2 lb=0:    527 shell pairs
          la=2 lb=1:    283 shell pairs
          la=2 lb=2:     45 shell pairs
          la=3 lb=0:    240 shell pairs
          la=3 lb=1:    128 shell pairs
          la=3 lb=2:     36 shell pairs
          la=3 lb=3:     10 shell pairs

Checking whether 4 symmetric matrices of dimension 229 fit in memory
:Max Core in MB      =   4096.00
 MB in use           =      9.64
 MB left             =   4086.36
 MB needed           =      0.80
 Data fit in memory  = YES
Calculating RI/J V-Matrix + Cholesky decomp.... done (  0.0 sec)
Calculating Nuclear repulsion               ... done (  0.0 sec) ENN=    424.185938457239 Eh

Diagonalization of the overlap matrix:
Smallest eigenvalue                        ... 2.311e-03
Time for diagonalization                   ...    0.003 sec
Threshold for overlap eigenvalues          ... 1.000e-07
Number of eigenvalues below threshold      ... 0
Time for construction of square roots      ...    0.002 sec
Total time needed                          ...    0.006 sec

-------------------
DFT GRID GENERATION
-------------------

General Integration Accuracy     IntAcc      ... 4.959
Radial Grid Type                 RadialGrid  ... OptM3 with GC (2021)
Angular Grid (max. ang.)         AngularGrid ... 6 (Lebedev-590)
Angular grid pruning method      GridPruning ... 4 (adaptive)
Weight generation scheme         WeightScheme... mBecke (2022)
Basis function cutoff            BFCut       ... 1.0000e-12
Integration weight cutoff        WCut        ... 1.0000e-14
Partially contracted basis set               ... off
Rotationally invariant grid construction     ... off
Angular grids for H and He will be reduced by one unit

Total number of grid points                  ...   184861
Total number of batches                      ...     2894
Average number of points per batch           ...       63
Average number of grid points per atom       ...    10874
Grids setup in   2.3 sec
Initializing property integral containers    ... done (  0.0 sec)

SHARK setup successfully completed in   2.6 seconds

Maximum memory used throughout the entire STARTUP-calculation: 68.9 MB
-------------------------------------------------------------------------------
                                 ORCA GUESS
                   Start orbitals & Density for SCF / CASSCF
-------------------------------------------------------------------------------

------------
SCF SETTINGS
------------
Hamiltonian:
 Density Functional     Method          .... DFT(GTOs)
 Exchange Functional    Exchange        .... B88
   X-Alpha parameter    XAlpha          ....  0.666667
   Becke's b parameter  XBeta           ....  0.004200
 Correlation Functional Correlation     .... P86
 LDA part of GGA corr.  LDAOpt          .... PW91-LDA
 Gradients option       PostSCFGGA      .... off
   NL short-range parameter             ....  4.400000
 RI-approximation to the Coulomb term is turned on
   Number of AuxJ basis functions       .... 385


General Settings:
 Integral files         IntName         .... 1b_ph3_Compound_2
 Hartree-Fock type      HFTyp           .... RHF
 Total Charge           Charge          ....    0
 Multiplicity           Mult            ....    1
 Number of Electrons    NEL             ....   74
 Basis Dimension        Dim             ....  229
 Nuclear Repulsion      ENuc            ....    424.1859384572 Eh

Convergence Acceleration:
 AO-DIIS                CNVDIIS         .... on
   Start iteration      DIISMaxIt       ....    12
   Startup error        DIISStart       ....  0.200000
   # of expansion vecs  DIISMaxEq       ....     5
   Bias factor          DIISBfac        ....   1.050
   Max. coefficient     DIISMaxC        ....  10.000
 MO-DIIS                CNVKDIIS        .... off
 Trust-Rad. Augm. Hess. CNVTRAH         .... auto
   Auto Start mean grad. ratio tolernc. ....  1.125000
   Auto Start start iteration           ....     1
   Auto Start num. interpolation iter.  ....    10
   Max. Number of Micro iterations      ....    24
   Max. Number of Macro iterations      .... Maxiter - #DIIS iter
   Number of Davidson start vectors     ....     2
   Converg. threshold    (grad. norm)   ....   2.000e-06
   Grad. Scal. Fac. for Micro threshold ....   0.100
   Minimum threshold for Micro iter.    ....   1.000e-02
   NR start threshold (gradient norm)   ....   1.000e-04
   Initial trust radius                 ....   0.400
   Minimum AH scaling param. (alpha)    ....   1.000
   Maximum AH scaling param. (alpha)    .... 1000.000
   Quad. conv. algorithm                .... NR
   White noise on init. David. guess    .... on
   Maximum white noise                  ....   0.010
   Pseudo random numbers                .... off
   Inactive MOs                         .... canonical
   Orbital update algorithm             .... Taylor
   Preconditioner                       .... Diag
   Full preconditioner red. dimension   ....   250
 SOSCF                 CNVSOSCF           .... on
   Start iteration     SOSCFMaxIt         ....   150
   Startup grad/error  SOSCFStart         ....  0.003300
   Hessian update      SOSCFHessUp        .... L-BFGS
   Autom. constraints  SOSCFAutoConstrain .... off
 Level Shifting         CNVShift        .... on
   Level shift para.    LevelShift      ....    0.2500
   Turn off err/grad.   ShiftErr        ....    0.0010
 Zerner damping         CNVZerner       .... off
 Static damping         CNVDamp         .... on
   Fraction old density DampFac         ....    0.7000
   Max. Damping (<1)    DampMax         ....    0.9800
   Min. Damping (>=0)   DampMin         ....    0.0000
   Turn off err/grad.   DampErr         ....    0.1000

SCF Procedure:
 Maximum # iterations   MaxIter         ....   125
 SCF integral mode      SCFMode         .... Direct
   Integral package                     .... SHARK and LIBINT hybrid scheme
 Reset frequency        DirectResetFreq ....    20
 Integral Threshold     Thresh          ....  1.000e-12 Eh
 Primitive CutOff       TCut            ....  1.000e-14 Eh

Convergence Tolerance:
 Convergence Check Mode ConvCheckMode   .... Total+1el-Energy
 Convergence forced     ConvForced      .... 0
 Energy Change          TolE            ....  1.000e-09 Eh
 1-El. energy change                    ....  1.000e-06 Eh
 Orbital Gradient       TolG            ....  2.000e-06
 Orbital Rotation angle TolX            ....  2.000e-06
 DIIS Error             TolErr          ....  1.000e-08

---------------------
INITIAL GUESS: MOREAD
---------------------
Guess MOs are being read from file: 1b_ph3_Compound_1.gbw
Input Geometry matches current geometry (good)
Atom 0: N(Shells)= 14 and 11 - projection required
Input basis set needs projection
NBasis(read)= 150
NBasis(calc)= 229
Basis set overlap was calculated
Using GuessMode=FMatrix for the initial guess
C*T matrix was formed
Effective Fockian was calculated
Effective Fockian was diagonalized
Initial density was built
                      ------------------
                      INITIAL GUESS DONE (   0.0 sec)
                      ------------------
             **** ENERGY FILE WAS UPDATED (1b_ph3_Compound_2.en.tmp) ****
Finished Guess after   0.1 sec
Maximum memory used throughout the entire GUESS-calculation: 19.8 MB

-------------------------------------------------------------------------------------------
                                      ORCA LEAN-SCF
                              memory conserving SCF solver
-------------------------------------------------------------------------------------------

----------------------------------------D-I-I-S--------------------------------------------
Iteration    Energy (Eh)           Delta-E    RMSDP     MaxDP     DIISErr   Damp  Time(sec)
-------------------------------------------------------------------------------------------
               ***  Starting incremental Fock matrix formation  ***
    1    -1126.9834332515374626     0.00e+00  1.55e-03  4.00e-02  3.84e-01  0.700   1.3
    2    -1127.0088457118467886    -2.54e-02  1.28e-03  3.39e-02  2.70e-01  0.700   1.2
                               ***Turning on AO-DIIS***
    3    -1127.0267310935932983    -1.79e-02  9.42e-04  2.42e-02  1.89e-01  0.700   1.2
    4    -1127.0392322957200122    -1.25e-02  6.80e-04  1.84e-02  1.32e-01  0.700   1.2
[...]
      f+1     :     0.028261
      f-1     :     0.012776
      f+2     :     0.015960
      f-2     :     0.022970
      f+3     :     0.034083
      f-3     :     0.022020
      g0      :     0.001309  g :     0.013128
      g+1     :     0.001331
      g-1     :     0.000077
      g+2     :     0.001318
      g-2     :     0.001925
      g+3     :     0.001095
      g-3     :     0.001408
      g+4     :     0.002974
      g-4     :     0.001692

  3 P s       :     4.817216  s :     4.817216
      pz      :     2.858296  p :     8.791385
      px      :     2.860995
      py      :     3.072094
      dz2     :     0.080879  d :     0.589881
      dxz     :     0.066288
      dyz     :     0.187057
      dx2y2   :     0.043768
      dxy     :     0.211889
      f0      :     0.011738  f :     0.130405
      f+1     :     0.007656
      f-1     :     0.024749
      f+2     :     0.014847
      f-2     :     0.022781
      f+3     :     0.019041
      f-3     :     0.029592
      g0      :     0.000822  g :     0.010225
      g+1     :     0.000234
      g-1     :     0.001351
      g+2     :     0.001223
      g-2     :     0.001001
      g+3     :     0.001076
      g-3     :     0.001206
      g+4     :     0.002083
      g-4     :     0.001228

  4 H s       :     0.920771  s :     0.920771
      pz      :     0.062556  p :     0.162399
      px      :     0.055784
      py      :     0.044059
      dz2     :     0.009688  d :     0.036770
      dxz     :     0.009560
      dyz     :     0.008326
      dx2y2   :     0.004476
      dxy     :     0.004720
      f0      :     0.000483  f :     0.002268
      f+1     :     0.000346
      f-1     :     0.000353
      f+2     :     0.000381
      f-2     :     0.000482
      f+3     :     0.000067
      f-3     :     0.000157

  5 H s       :     0.763781  s :     0.763781
      pz      :     0.041146  p :     0.194939
      px      :     0.038945
      py      :     0.114847
      dz2     :     0.016895  d :     0.051779
      dxz     :     0.010606
      dyz     :     0.014659
      dx2y2   :     0.007196
      dxy     :     0.002424
      f0      :     0.001345  f :     0.003984
      f+1     :     0.000859
      f-1     :     0.000509
      f+2     :     0.000483
      f-2     :     0.000246
      f+3     :     0.000108
      f-3     :     0.000433

  6 H s       :     0.755723  s :     0.755723
      pz      :     0.063728  p :     0.202715
      px      :     0.040893
      py      :     0.098094
      dz2     :     0.017337  d :     0.058164
      dxz     :     0.009147
      dyz     :     0.015052
      dx2y2   :     0.011681
      dxy     :     0.004947
      f0      :     0.000634  f :     0.004765
      f+1     :     0.000547
      f-1     :     0.001519
      f+2     :     0.000683
      f-2     :     0.000565
      f+3     :     0.000193
      f-3     :     0.000623

  7 H s       :     0.879545  s :     0.879545
      pz      :     0.050217  p :     0.166594
      px      :     0.057704
      py      :     0.058673
      dz2     :     0.010441  d :     0.074457
      dxz     :     0.003843
      dyz     :     0.019494
      dx2y2   :     0.023764
      dxy     :     0.016914
      f0      :     0.000818  f :     0.008074
      f+1     :     0.000123
      f-1     :     0.001486
      f+2     :     0.001563
      f-2     :     0.000567
      f+3     :     0.001402
      f-3     :     0.002115

  8 H s       :     0.904736  s :     0.904736
      pz      :     0.059143  p :     0.157436
      px      :     0.051350
      py      :     0.046943
      dz2     :     0.029510  d :     0.074265
      dxz     :     0.021112
      dyz     :     0.017850
      dx2y2   :     0.002705
      dxy     :     0.003088
      f0      :     0.002985  f :     0.008379
      f+1     :     0.002240
      f-1     :     0.001928
      f+2     :     0.000502
      f-2     :     0.000628
      f+3     :     0.000035
      f-3     :     0.000062

  9 H s       :     0.913613  s :     0.913613
      pz      :     0.091864  p :     0.180988
      px      :     0.044395
      py      :     0.044729
      dz2     :     0.012584  d :     0.038915
      dxz     :     0.007921
      dyz     :     0.009088
      dx2y2   :     0.004192
      dxy     :     0.005131
      f0      :     0.000339  f :     0.002223
      f+1     :     0.000318
      f-1     :     0.000563
      f+2     :     0.000336
      f-2     :     0.000436
      f+3     :     0.000109
      f-3     :     0.000121

 10 H s       :     0.909899  s :     0.909899
      pz      :     0.061629  p :     0.194101
      px      :     0.073315
      py      :     0.059157
      dz2     :     0.003459  d :     0.040266
      dxz     :     0.010688
      dyz     :     0.004811
      dx2y2   :     0.009666
      dxy     :     0.011642
      f0      :     0.000352  f :     0.002271
      f+1     :     0.000212
      f-1     :     0.000110
      f+2     :     0.000075
      f-2     :     0.000465
      f+3     :     0.000550
      f-3     :     0.000508

 11 H s       :     0.911878  s :     0.911878
      pz      :     0.059633  p :     0.156877
      px      :     0.052143
      py      :     0.045101
      dz2     :     0.009130  d :     0.036587
      dxz     :     0.009075
      dyz     :     0.008083
      dx2y2   :     0.004930
      dxy     :     0.005369
      f0      :     0.000446  f :     0.002286
      f+1     :     0.000317
      f-1     :     0.000327
      f+2     :     0.000383
      f-2     :     0.000523
      f+3     :     0.000092
      f-3     :     0.000197

 12 H s       :     0.919959  s :     0.919959
      pz      :     0.031809  p :     0.160767
      px      :     0.065473
      py      :     0.063486
      dz2     :     0.003772  d :     0.036823
      dxz     :     0.002613
      dyz     :     0.007610
      dx2y2   :     0.010550
      dxy     :     0.012277
      f0      :     0.000209  f :     0.002265
      f+1     :     0.000182
      f-1     :     0.000214
      f+2     :     0.000133
      f-2     :     0.000285
      f+3     :     0.000537
      f-3     :     0.000704

 13 H s       :     0.783736  s :     0.783736
      pz      :     0.091941  p :     0.288835
      px      :     0.099368
      py      :     0.097526
      dz2     :     0.010168  d :     0.077599
      dxz     :     0.016563
      dyz     :     0.011423
      dx2y2   :     0.023356
      dxy     :     0.016090
      f0      :     0.000542  f :     0.005437
      f+1     :     0.000758
      f-1     :     0.000488
      f+2     :     0.000891
      f-2     :     0.000495
      f+3     :     0.001263
      f-3     :     0.000999

 14 H s       :     0.922943  s :     0.922943
      pz      :     0.069209  p :     0.162084
      px      :     0.034301
      py      :     0.058575
      dz2     :     0.010091  d :     0.036166
      dxz     :     0.008451
      dyz     :     0.012199
      dx2y2   :     0.003252
      dxy     :     0.002172
      f0      :     0.000514  f :     0.002172
      f+1     :     0.000385
      f-1     :     0.000556
      f+2     :     0.000376
      f-2     :     0.000260
      f+3     :     0.000049
      f-3     :     0.000032

 15 H s       :     0.917116  s :     0.917116
      pz      :     0.050152  p :     0.163760
      px      :     0.053356
      py      :     0.060251
      dz2     :     0.007928  d :     0.037541
      dxz     :     0.007416
      dyz     :     0.006997
      dx2y2   :     0.007026
      dxy     :     0.008174
      f0      :     0.000324  f :     0.002330
      f+1     :     0.000357
      f-1     :     0.000177
      f+2     :     0.000343
      f-2     :     0.000564
      f+3     :     0.000357
      f-3     :     0.000207

 16 H s       :     0.918941  s :     0.918941
      pz      :     0.033404  p :     0.166718
      px      :     0.065008
      py      :     0.068306
      dz2     :     0.004425  d :     0.037598
      dxz     :     0.007599
      dyz     :     0.002614
      dx2y2   :     0.010400
      dxy     :     0.012561
      f0      :     0.000183  f :     0.002322
      f+1     :     0.000296
      f-1     :     0.000168
      f+2     :     0.000158
      f-2     :     0.000293
      f+3     :     0.000698
      f-3     :     0.000526



                      *****************************
                      * MAYER POPULATION ANALYSIS *
                      *****************************

  NA   - Mulliken gross atomic population
  ZA   - Total nuclear charge
  QA   - Mulliken gross atomic charge
  VA   - Mayer's total valence
  BVA  - Mayer's bonded valence
  FA   - Mayer's free valence

  ATOM       NA         ZA         QA         VA         BVA        FA
  0 Ru    16.2463    16.0000    -0.2463     5.4037     5.4037     0.0000
  1 P     15.0849    15.0000    -0.0849     3.2274     3.2274    -0.0000
  2 P     15.0530    15.0000    -0.0530     4.0959     4.0959    -0.0000
  3 P     15.0913    15.0000    -0.0913     3.9451     3.9451    -0.0000
  4 H      0.9421     1.0000     0.0579     0.9845     0.9845    -0.0000
  5 H      0.9592     1.0000     0.0408     1.0820     1.0820    -0.0000
  6 H      0.9358     1.0000     0.0642     1.0809     1.0809    -0.0000
  7 H      1.0295     1.0000    -0.0295     1.0641     1.0641    -0.0000
  8 H      1.0318     1.0000    -0.0318     1.0555     1.0555    -0.0000
  9 H      0.9610     1.0000     0.0390     1.0072     1.0072     0.0000
 10 H      0.9972     1.0000     0.0028     1.0006     1.0006     0.0000
 11 H      0.9159     1.0000     0.0841     0.9827     0.9827     0.0000
 12 H      0.9579     1.0000     0.0421     0.9876     0.9876     0.0000
 13 H      0.9943     1.0000     0.0057     1.0989     1.0989    -0.0000
 14 H      0.9374     1.0000     0.0626     0.9868     0.9868    -0.0000
 15 H      0.9253     1.0000     0.0747     0.9913     0.9913    -0.0000
 16 H      0.9371     1.0000     0.0629     0.9921     0.9921     0.0000

  Mayer bond orders larger than 0.100000
B(  0-Ru,  1-P ) :   0.5377 B(  0-Ru,  2-P ) :   0.9733 B(  0-Ru,  3-P ) :   0.8421 
B(  0-Ru,  5-H ) :   0.4434 B(  0-Ru,  6-H ) :   0.4507 B(  0-Ru,  7-H ) :   0.7675 
B(  0-Ru,  8-H ) :   0.7883 B(  0-Ru, 13-H ) :   0.4116 B(  1-P ,  9-H ) :   0.9812 
B(  1-P , 10-H ) :   0.9236 B(  1-P , 13-H ) :   0.5889 B(  2-P ,  4-H ) :   0.9221 
B(  2-P , 11-H ) :   0.9339 B(  2-P , 12-H ) :   0.9243 B(  3-P , 14-H ) :   0.9321 
B(  3-P , 15-H ) :   0.9450 B(  3-P , 16-H ) :   0.9399 B(  5-H ,  6-H ) :   0.5472 


-------
TIMINGS
-------

Total SCF time: 0 days 0 hours 0 min 57 sec 

Total time                  ....      57.627 sec
Sum of individual times     ....      54.555 sec  ( 94.7%)

SCF preparation             ....       0.071 sec  (  0.1%)
Fock matrix formation       ....      53.232 sec  ( 92.4%)
  Startup                   ....       0.013 sec  (  0.0% of F)
  Split-RI-J                ....      11.815 sec  ( 22.2% of F)
  XC integration            ....      44.223 sec  ( 83.1% of F)
    XC Preparation          ....       0.000 sec  (  0.0% of XC)
    Basis function eval.    ....       8.206 sec  ( 18.6% of XC)
    Density eval.           ....      11.597 sec  ( 26.2% of XC)
    XC-Functional eval.     ....       0.617 sec  (  1.4% of XC)
    XC-Potential eval.      ....      23.399 sec  ( 52.9% of XC)
Diagonalization             ....       0.000 sec  (  0.0%)
Density matrix formation    ....       0.078 sec  (  0.1%)
Total Energy calculation    ....       0.017 sec  (  0.0%)
Population analysis         ....       0.041 sec  (  0.1%)
Orbital Transformation      ....       0.149 sec  (  0.3%)
Orbital Orthonormalization  ....       0.000 sec  (  0.0%)
DIIS solution               ....       0.499 sec  (  0.9%)
SOSCF solution              ....       0.469 sec  (  0.8%)
Finished LeanSCF after  57.7 sec

Maximum memory used throughout the entire LEANSCF-calculation: 122.3 MB

-------------------------   --------------------
FINAL SINGLE POINT ENERGY     -1127.117806365314
-------------------------   --------------------


------------------------------------------------------------------------------
                              ORCA PROPERTY CALCULATIONS
------------------------------------------------------------------------------

GBWName                                 ... 1b_ph3_Compound_3.gbw
Number of atoms                         ...     17
Number of basis functions               ...    672
Max core memory                         ...   4096 MB

Electric properties:
Dipole moment                           ... YES
Quadrupole moment                       ...  NO
Static polarizability (Dipole/Dipole)   ...  NO
Static polarizability (Dipole/Quad.)    ...  NO
Static polarizability (Quad./Quad.)     ...  NO
Static polarizability (Velocity)        ...  NO
Static hyperpolarizability              ...  NO

Atomic electric properties:
Dipole moment                           ...  NO
Quadrupole moment                       ...  NO
Static polarizability                   ...  NO

Choice of electric origin               ... Center of mass
Position of electric origin             ...     0.410000     0.166322     0.889282

General magnetic properties:
Magnetizability                         ...  NO

EPR properties:
g-Tensor (aka g-matrix)                 ...  NO
Zero-Field splitting spin-orbit         ...  NO
Zero-field splitting spin-spin          ...  NO
Hyperfine couplings                     ...  NO (   0 nuclei)
Quadrupole couplings                    ...  NO (   0 nuclei)
Contact density                         ...  NO (   0 nuclei)

NMR properties:
Chemical shifts                         ...  NO (   0 nuclei)
Spin-rotation constants                 ...  NO (   0 nuclei)
Spin-spin couplings                     ...  NO (   0 nuclei,    0 pairs)

Choice of magnetic origin               ... GIAO
Position of magnetic origin             ...     0.000000     0.000000     0.000000

Properties with geometric perturbations:
SCF Hessian                             ...  NO
IR spectrum                             ...  NO
VCD spectrum                            ...  NO
X-ray spectroscopy properties:
SCF XES/XAS/RIXS spectra                ...  NO

SCF SOC stabilization energy            ...  NO
Diagonal Born-Oppenheimer correction    ...  NO

-------------
DIPOLE MOMENT
-------------

Method             : SCF
Type of density    : Electron Density
Multiplicity       :   1
Irrep              :   0
Energy             : -1127.1178063653144363 Eh
Basis              : AO
                                X                 Y                 Z
Electronic contribution:      2.867756775      13.531095330       3.576507495
Nuclear contribution   :     -3.610203481     -14.305885018      -2.832519409
                        -----------------------------------------
Total Dipole Moment    :     -0.742446706      -0.774789688       0.743988086
                        -----------------------------------------
Magnitude (a.u.)       :      1.305773505
Magnitude (Debye)      :      3.319012482



--------------------
Rotational spectrum 
--------------------
 
Rotational constants in cm-1:             0.073497             0.041550             0.028306 
Rotational constants in MHz :          2203.383497          1245.623361           848.604007 

Dipole components along the rotational axes: 
x,y,z [a.u.] :    -1.141818     0.515265     0.368508 
x,y,z [Debye]:    -2.902271     1.309699     0.936672 

 

Dipole moment calculation done in   0.0 sec 

Maximum memory used throughout the entire PROP-calculation: 104.5 MB

Timings for individual modules:

Sum of individual times          ...       62.027 sec (=   1.034 min)
Startup calculation              ...        4.072 sec (=   0.068 min)   6.6 %
SCF iterations                   ...       57.872 sec (=   0.965 min)  93.3 %
Property calculations            ...        0.083 sec (=   0.001 min)   0.1 %

--------------------------------
SUGGESTED CITATIONS FOR THIS RUN
--------------------------------

Below you find a list of papers that are relevant to this ORCA run
We neither can nor want to force you to cite these papers, but we appreciate if you do
You receive ORCA, which is the product of decades of hard work by many enthusiastic individuals, for free
The only thing we kindly ask in return is that you cite our papers,
We deeply appreciate it, if you show your appreciation for ORCA by not just citing the generic ORCA reference.

Please note that relegating all ORCA citations to the supporting information does *not* help us.
SI sections are not indexed - citations you put there will not count into any citation statistics
But we need these citations in order to attract the funding resources that allow us to do what we are doing

Therefore, if you are a happy ORCA user, please consider citing a few of the papers listed below in the main body of your paper

In addition to the list printed below, the program has created the file 1b_ph3.bibtex that contains the list in bibtex format
You can import this file easily into all common literature databanks and citation aid programs

It goes without saying that in many instances, there are alternative algorithms to achieve similar
results as the ones you have gotten from ORCA. It is, of course, also the case that in some instances
ORCA just re-implements algorithms worked out by others. We are fully aware of that and we are also
fully appreciative of our colleagues work. Hence this citation list should not be read as indicating
that the listed papers, which are focused on our own work, are the only ones worth citing. It simply
meant to make it easier for users to cite ORCA specific papers. It is not a substitute for doing your
own literature research and citing the relevant literature in a scientifically appropriate manner.

List of essential papers. We consider these as the minimum necessary citations

  1. Neese, F.
     Software update: the ORCA program system, version 6.0
     WIRES Comput. Molec. Sci. 2025 15(1), e70019
     doi.org/10.1002/wcms.70019

List of papers to cite with high priority. The work reported in these papers was absolutely
necessary for this run to complete.
Our perspective: the developers of density functionals and basis sets usually get cited in chemistry papers
Good! But without the algorithms to do something with them, the functionals or basis sets would not do anything.
Hence, in our opinion, the algorithm design and method developments papers are equally worthy of getting cited

  1. Neese, F.
     An improvement of the resolution of the identity approximation for the formation of the Coulomb matrix
     J. Comp. Chem. 2003 24(14), 1740-1747
     doi.org/10.1002/jcc.10318
  2. Neese, F.
     The SHARK Integral Generation and Digestion System
     J. Comp. Chem. 2022 44(3), 381
     doi.org/10.1002/jcc.26942

List of suggested additional citations. These are papers that are important in the 'surrounding' of 
of this run, or papers that preceded the highly important papers. If you like your results we are grateful for a citation.

  1. Neese, F.
     The ORCA program system
     WIRES Comput. Molec. Sci. 2012 2(1), 73-78
     doi.org/10.1002/wcms.81
  2. Neese, F.
     Software update: the ORCA program system, version 4.0
     WIRES Comput. Molec. Sci. 2018 8(1), 1-6
     doi.org/10.1002/wcms.1327
  3. Neese, F.; Wennmohs, F.; Becker, U.; Riplinger, C.
     The ORCA quantum chemistry program package
     J. Chem. Phys. 2020 152(22), 224108
     doi.org/10.1063/5.0004608
  4. Neese, F.
     Software update: The ORCA program system—Version 5.0
     WIRES Comput. Molec. Sci. 2022 12(1), e1606
     doi.org/10.1002/wcms.1606

List of optional additional citations

  1. Neese, F.
     Approximate second-order SCF convergence for spin unrestricted wavefunctions
     Chem. Phys. Lett. 2000 325(1-3), 93-98
     doi.org/10.1016/s0009-2614(00)00662-x
                             ****ORCA TERMINATED NORMALLY****
TOTAL RUN TIME: 0 days 0 hours 1 minutes 40 seconds 102 msec
