
                                 *****************
                                 * O   R   C   A *
                                 *****************

                                            #,                                       
                                            ###                                      
                                            ####                                     
                                            #####                                    
                                            ######                                   
                                           ########,                                 
                                     ,,################,,,,,                         
                               ,,#################################,,                 
                          ,,##########################################,,             
                       ,#########################################, ''#####,          
                    ,#############################################,,   '####,        
                  ,##################################################,,,,####,       
                ,###########''''           ''''###############################       
              ,#####''   ,,,,##########,,,,          '''####'''          '####       
            ,##' ,,,,###########################,,,                        '##       
           ' ,,###''''                  '''############,,,                           
         ,,##''                                '''############,,,,        ,,,,,,###''
      ,#''                                            '''#######################'''  
     '                                                          ''''####''''         
             ,#######,   #######,   ,#######,      ##                                
            ,#'     '#,  ##    ##  ,#'     '#,    #''#        ,####,    ,#,          
            ##       ##  ##   ,#'  ##            #'  '#       #'       ,# #          
            ##       ##  #######   ##           ,######,      #####,      #          
            '#,     ,#'  ##    ##  '#,     ,#' ,#      #,     #,   #      #          
             '#######'   ##     ##  '#######'  #'      '#     '####' #    #          



                #########################################################
                #                        -***-                          #
                #          Department of theory and spectroscopy        #
                #                                                       #
                #                      Frank Neese                      #
                #                                                       #
                #     Directorship, Architecture, Infrastructure        #
                #                    SHARK, DRIVERS                     #
                #        Core code/Algorithms in most modules           #
                #                                                       #
                #        Max Planck Institute fuer Kohlenforschung      #
                #                Kaiser Wilhelm Platz 1                 #
                #                 D-45470 Muelheim/Ruhr                 #
                #                      Germany                          #
                #                                                       #
                #                  All rights reserved                  #
                #                        -***-                          #
                #########################################################


                         Program Version 6.1.1  -  RELEASE   -
                                (GIT: $487d211c$)
                          ($2025-11-21 10:33:24 +0100$)


 With contributions from (in alphabetic order):
[Max-Planck-Institut fuer Kohlenforschung]                               
  Daniel Aravena         : Magnetic Suceptibility                        
  Michael Atanasov       : Ab Initio Ligand Field Theory (pilot matlab implementation)
  Alexander A. Auer      : GIAO ZORA, VPT2 properties, NMR spectrum      
  Ute Becker             : All parallelization in ORCA, NUMFREQ, NUMCALC 
  Giovanni Bistoni       : ED, misc. LED, open-shell LED, HFLD           
  Dmytro Bykov           : pre 5.0 version of the SCF Hessian            
  Marcos Casanova-Páez   : Triplet and SCS-CIS(D). UHF-(DLPNO)-IP/EA/STEOM-CCSD. UHF-CVS-IP/STEOM-CCSD   
  Vijay G. Chilkuri      : MRCI spin determinant printing, contributions to CSF-ICE 
  Pauline Colinet        : FMM embedding                                 
  Dipayan Datta          : RHF DLPNO-CCSD density                        
  Achintya Kumar Dutta   : EOM-CC, STEOM-CC                              
  Nicolas Foglia         : Exact transition moments, OPA infrastructure, MCD improvements    
  Dmitry Ganyushin       : Spin-Orbit,Spin-Spin,Magnetic field MRCI      
  Miquel Garcia-Rates    : C-PCM and meta-GGA Hessian, CCSD/C-PCM, Gaussian charge scheme 
  Tiago L. C. Gouveia    : GS-ROHF, GS-ROCIS                             
  Yang Guo               : DLPNO-NEVPT2, F12-NEVPT2, CIM, IAO-localization        
  Andreas Hansen         : Spin unrestricted coupled pair/coupled cluster methods 
  Ingolf Harden          : AUTO-CI MPn and infrastructure                
  Benjamin Helmich-Paris : MC-RPA, TRAH-(SCF,CASSCF), AVAS, COSX integrals, SCF dyn. polar., MC-PDFT, srDFT 
  Lee Huntington         : MR-EOM, pCC                                   
  Robert Izsak           : Overlap fitted RIJCOSX, COSX-SCS-MP3, EOM     
  Riya Kayal             : Wick's Theorem for AUTO-CI, AUTO-CI UHF-CCSDT 
  Emily Kempfer          : AUTO-CI RHF CISDT and CCSDT, approximate NEVPT4
  Christian Kollmar      : KDIIS, OOCD, Brueckner-CCSD(T), CCSD density, CASPT2, CASPT2-K, improved NEVPT2 
  Axel Koslowski         : Symmetry handling                             
  Simone Kossmann        : meta-GGA functionals, TD-DFT gradient, OOMP2, (MP2 Hessian; deprecated post 5.0) 
  Lucas Lang             : DCDCAS, Hyperfine gauge corrections, ICE-SOC+SSC
  Marvin Lechner         : AUTO-CI (C++ implementation), FIC-MRCC        
  Spencer Leger          : CASSCF response                               
  Dagmar Lenk            : GEPOL surface, SMD, ORCA-2-JSON               
  Dimitrios Liakos       : Extrapolation schemes; Compound Job, Property file
  Dimitrios Manganas     : Further ROCIS development; embedding schemes. LFT, Crystal Embedding 
  Dimitrios Pantazis     : SARC Basis sets                               
  Anastasios Papadopoulos: AUTO-CI, single reference methods and gradients 
  Taras Petrenko         : pre 6.0 DFT Hessian and TD-DFT gradient,  ECA, NRVS 
  Petra Pikulova         : Analytic Raman intensities                    
  Peter Pinski           : DLPNO-MP2, DLPNO-MP2 Gradient                 
  Shashank Vittal Rao    : ES-AILFT, MagRelax                            
  Christoph Reimann      : Effective Core Potentials                     
  Marius Retegan         : Local ZFS, SOC                                
  Christoph Riplinger    : Optimizer, TS searches, QM/MM, DLPNO-CCSD(T), (RO)-DLPNO pert. Triples 
  Michael Roemelt        : Original ROCIS implementation, recursive CI coupling coefficients
  Masaaki Saitow         : Open-shell DLPNO-CCSD energy and density      
  Barbara Sandhoefer     : DKH picture change effects                    
  Yorick L. A. Schmerwitz: GMF and freeze-and-release deltaSCF, NEB S-IDPP initial path                    
  Kantharuban Sivalingam : CASSCF convergence/infrastructure, NEVPT2, NEVPT3, NEVPT4(SD), FIC-MRCI and CEPA variants
  Bernardo de Souza      : ESD, SOC TD-DFT                               
  Georgi L. Stoychev     : AutoAux, RI-MP2 NMR, DLPNO-MP2 response, X2C  
  Van Anh Tran           : RI-MP2 g-tensors                              
  Willem Van den Heuvel  : Paramagnetic NMR                              
  Zikuan Wang            : NOTCH, Electric field optimization            
  Frank Wennmohs         : Technical directorship and infrastructure     
  Hang Xu                : AUTO-CI-Response properties                   
                                                                         
[FACCTs GmbH]                                                            
  Markus Bursch, Nicolas Foglia, Miquel Garcia-Rates, Ingolf Harden, Hagen Neugebauer, Anastasios Papadopoulos, 
  Christoph Riplinger, Bernardo de Souza, Georgi L. Stoychev                                                    
                                                                 
  APM, various basis sets, CI-OPT, improved COSX, DLPNO-Multilevel,           
  DOCKER, DRACO, updates on ESD, Fragmentator, GOAT, IRC, LR-CPCM, L-BFGS, MBIS, meta-GGA TD-DFT gradient, ML-optimized integration grids, 
  MM, NACMEs, nearIR, NEB, NEB-TS, NL-DFT gradient (VV10), 2- and 3-layer-ONIOM, interface openCOSMO-RS, QMMM,   
  Crystal-QMMM, RESP, rigid body optimization, SF, symmetry and pop. for TD-DFT, various functionals, SOLVATOR                                   
                                                                         
[Other institutions]                                                     
  V. Asgeirsson          : NEB                                           
  Christoph Bannwarth    : sTDA-DFT, sTD-DFT, PBEh-3c, B97-3c, D3        
  Giovanni Bistoni       : ETS/NOCV, ADLD/ADEX, COVALED                  
  Martin Brehm           : Molecular dynamics                            
  Ronald Cardenas        : ETS/NOCV                                      
  Martina Colucci        : COVALED                                       
  Sebastian Ehlert       : rSCAN, r2SCAN, r2SCAN-3c, D4, dhf basis sets  
  Marvin Friede          : D4 for Fr, Ra, Ac-Lr                          
  Lars Goerigk           : TD-DFT with DH, B97 family of functionals     
  Stefan Grimme          : VdW corrections, initial TS optimization, DFT functionals, gCP, sTDA/sTD-DF 
  Waldemar Hujo          : DFT-NL                                        
  H. Jonsson             : NEB                                           
  Holger Kruse           : gCP                                           
  Marcel Mueller         : wB97X-3c, vDZP basis set                      
  Hagen Neugebauer       : wr2SCAN, Native XTB                           
  Gianluca Regni         : ADLD/ADEX                                     
  Tobias Risthaus        : pre 6.0 range-separated hybrid DFT and stability analysis
  Lukas Wittmann         : regularized MP2, r2SCAN double-hybrids, wr2SCAN        
                                                                         
We gratefully acknowledge several colleagues who have allowed us to      
interface, adapt or use parts of their codes:                            
  Ed Valeev, F. Pavosevic, A. Kumar             : LibInt (2-el integral package), F12 methods 
  Garnet Chan, S. Sharma, J. Yang, R. Olivares  : DMRG                   
  Ulf Ekstrom                                   : XCFun DFT Library      
  Mihaly Kallay                                 : mrcc  (arbitrary order and MRCC methods)
  Frank Weinhold                                : gennbo (NPA and NBO analysis)           
  Simon Mueller                                 : openCOSMO-RS                            
  Christopher J. Cramer and Donald G. Truhlar   : smd solvation model                     
  S Lehtola, MJT Oliveira, MAL Marques          : LibXC Library                           
  Liviu Ungur et al                             : ANISO software                          


 Your calculation uses the libint2 library for the computation of 2-el integrals
 For citations please refer to: http://libint.valeyev.net

 Your ORCA version has been built with support for libXC version: 7.0.0
 For citations please refer to: https://libxc.gitlab.io

 This ORCA versions uses:
   CBLAS   interface :  Fast vector & matrix operations
   LAPACKE interface :  Fast linear algebra routines
   SCALAPACK package :  Parallel linear algebra routines
   Shared memory     :  Shared parallel matrices
   BLAS/LAPACK       :  OpenBLAS 0.3.29  USE64BITINT DYNAMIC_ARCH NO_AFFINITY Cooperlake SINGLE_THREADED
        Core in use  :  Cooperlake
   Copyright (c) 2011-2014, The OpenBLAS Project


  ***********************************
  * Starting time: Mon Jul 20 18:53:15 2026
  * Host name:     c1-39
  * Process ID:    2215051
  * Working dir.:  /cluster/projects/nn14654k/ylvaos/TPhP_bsse/orca/geomopt_wb97x-d4_def2svp_ph3
  ***********************************

Your calculation utilizes the atom-pairwise dispersion correction
based on EEQ partial charges (D4)


Warning: RI is on but no J-basis has been assigned. Assigning Def2/J (nothing to worry about!)
================================================================================

cite the ECPs for Ru [Def2-ECP] as follows:
Ce-Yb(ecp-28): M. Dolg, H. Stoll, H.Preuss, J. Chem. Phys., 1989, 90, 1730-1734.
Y-Cd(ecp-28), Hf-Hg(ecp-46): D. Andrae,U. Haeussermann, M. Dolg, H. Stoll, H. Preuss, Theor. Chim. Acta, 1990, 77, 123-141.
In-Sb(ecp-28), Tl-Bi(ecp-46): B. Metz, H. Stoll, M. Dolg, J. Chem. Phys., 2000, 113, 2563-2569.
Te-Xe(ecp-28), Po-Rn(ecp-46): K. A. Peterson, D. Figgen, E. Goll, H. Stoll, M. Dolg, J. Chem. Phys., 2003, 119, 11113-11123.
Rb(ecp-28), Cs(ecp-46): T. Leininger, A. Nicklass, W. Kuechle, H. Stoll, M. Dolg, A. Bergner, Chem. Phys. Lett., 1996, 255, 274-280.
Sr(ecp-28), Ba(ecp-46): M. Kaupp, P. V. Schleyer, H. Stoll and H. Preuss, J. Chem. Phys., 1991, 94, 1360-1366.
La(ecp-46): M. Dolg, H. Stoll, A. Savin, H. Preuss, Theor. Chim. Acta, 1989, 75, 173-194.
Lu(ecp-28): X. Cao, M. Dolg, J. Chem. Phys., 2001, 115, 7348-7355.

ECP parameters for Ru [Def2-ECP] have been obtained from:
TURBOMOLE (7.0.2)

----- Orbital basis set information -----
Your calculation utilizes the basis: def2-SVP
   F. Weigend and R. Ahlrichs, Phys. Chem. Chem. Phys. 7, 3297 (2005).

----- AuxJ basis set information -----
Your calculation utilizes the auxiliary basis: def2/J
   H-Rn: F. Weigend, Phys. Chem. Chem. Phys. 8, 1057 (2006).
   Fr-Lr: K. Eichkorn, F. Weigend, O. Treutler, R. Ahlrichs; Theor. Chem. Acc. 97, 119 (1997).

================================================================================
                                        WARNINGS
                       Please study these warnings very carefully!
================================================================================

WARNING: Old DensityContainer found on disk!
         Will remove this file - 
         If you want to keep old densities, please start your calculation with a different basename. 


WARNING: Geometry Optimization
  ===> : Switching off AutoStart
         For restart on a previous wavefunction, please use MOREAD

================================================================================
                                       INPUT FILE
================================================================================
NAME = 15h_ph3_opt.inp
|  1> ! wB97X-D4 def2-SVP TightSCF defgrid3 Opt
|  2> 
|  3> %pal nprocs 32 end
|  4> 
|  5> %loc
|  6>   LocMet NEWBOYS
|  7>   Occ true
|  8> end
|  9> 
| 10> *xyz 0 1
| 11>  Ru        2.36585       -3.10870       -1.21022
| 12>   P        0.67358       -3.81672       -3.79211
| 13>   H        1.56659       -4.48024       -4.72620
| 14>   H       -0.04978       -5.03408       -3.46810
| 15>   H       -0.26726       -3.41191       -4.82190
| 16>   P        4.08742       -2.46260        1.36947
| 17>   H        5.00595       -1.34321        1.25395
| 18>   H        3.32967       -1.85663        2.45058
| 19>   H        4.95423       -3.21138        2.26259
| 20>   H        2.95423       -3.51138       -1.36259
| 21>   H        3.61042       -4.51515       -1.66440
| 22>   H        3.52819       -5.02535       -2.29357
| 23>   H        1.18866       -1.77900       -0.77987
| 24> **                         ****END OF INPUT****
================================================================================

                       *****************************
                       * Geometry Optimization Run *
                       *****************************

Geometry optimization settings:
Update method            Update   .... BFGS
Choice of coordinates    CoordSys .... (2022) Redundant Internals
Initial Hessian          InHess   .... Almloef's Model
Max. no of cycles        MaxIter  .... 50

Convergence Tolerances:
Energy Change            TolE     ....  5.0000e-06 Eh
Max. Gradient            TolMAXG  ....  3.0000e-04 Eh/bohr
RMS Gradient             TolRMSG  ....  1.0000e-04 Eh/bohr
Max. Displacement        TolMAXD  ....  4.0000e-03 bohr
RMS Displacement         TolRMSD  ....  2.0000e-03 bohr
Strict Convergence                .... False

------------------------------------------------------------------------------
                        ORCA OPTIMIZATION COORDINATE SETUP
------------------------------------------------------------------------------

The optimization will be done in redundant internal coordinates (2022)
Making redundant internal coordinates   ...  (2022 redundants) done
Evaluating the initial hessian          ...  (Almloef) done
Evaluating the coordinates              ...  done
Calculating the B-matrix                .... done
Calculating the G-matrix                .... done
The number of degrees of freedom        ....   60

    -----------------------------------------------------------------
                    Redundant Internal Coordinates


    -----------------------------------------------------------------
         Definition                    Initial Value    Approx d2E/dq
    -----------------------------------------------------------------
      1. B(P   1,Ru  0)                  3.1672         0.031041   
      2. B(H   2,P   1)                  1.4527         0.319375   
      3. B(H   3,P   1)                  1.4527         0.319396   
      4. B(H   4,P   1)                  1.4524         0.319670   
      5. B(P   5,Ru  0)                  3.1680         0.030954   
      6. B(H   6,P   5)                  1.4526         0.319445   
      7. B(H   7,P   5)                  1.4526         0.319401   
      8. B(H   8,P   5)                  1.4525         0.319599   
      9. B(H   9,Ru  0)                  0.7291        13.720548   
     10. B(H  10,Ru  0)                  1.9322         0.165157   
     11. B(H  11,H  10)                  0.8142         0.189889   
     12. B(H  12,Ru  0)                  1.8273         0.242778   
     13. A(P   5,Ru  0,H  10)           89.4172         0.255646   
     14. A(P   1,Ru  0,H  12)           90.5984         0.270944   
     15. A(P   5,Ru  0,H   9)           81.0407         0.542151   
     16. A(P   1,Ru  0,H   9)           97.8952         0.542438   
     17. A(P   5,Ru  0,H  12)           90.5674         0.270829   
     18. A(H   9,Ru  0,H  10)           13.8378         0.654742   
     19. A(H   9,Ru  0,H  12)          166.1725         0.706287   
     20. A(P   1,Ru  0,H  10)           89.4168         0.255751   
     21. A(H   3,P   1,H   4)           93.9651         0.327777   
     22. A(H   2,P   1,H   3)           93.8279         0.327727   
     23. A(H   2,P   1,H   4)           93.9914         0.327774   
     24. A(Ru  0,P   1,H   2)          107.3273         0.267621   
     25. A(Ru  0,P   1,H   3)          105.7580         0.267623   
     26. A(Ru  0,P   1,H   4)          149.5185         0.267658   
     27. A(Ru  0,P   5,H   6)          115.8510         0.267517   
     28. A(H   7,P   5,H   8)           93.9407         0.327766   
     29. A(H   6,P   5,H   8)           93.9450         0.327773   
     30. A(Ru  0,P   5,H   8)          136.0445         0.267536   
     31. A(H   6,P   5,H   7)           93.8746         0.327740   
     32. A(Ru  0,P   5,H   7)          114.0565         0.267511   
     33. A(Ru  0,H  10,H  11)          124.9398         0.230762   
     34. D(H   4,P   1,Ru  0,H   9)   -144.7153         0.010000   
     35. D(H   2,P   1,Ru  0,H  12)    156.7010         0.010000   
     36. D(H   3,P   1,Ru  0,H  12)   -104.0514         0.010000   
     37. D(H   4,P   1,Ru  0,H  10)   -155.6841         0.010000   
     38. D(H   2,P   1,Ru  0,H   9)    -12.3553         0.010000   
     39. D(H   3,P   1,Ru  0,H   9)     86.8923         0.010000   
     40. D(H   2,P   1,Ru  0,H  10)    -23.3241         0.010000   
     41. D(H   3,P   1,Ru  0,H  10)     75.9236         0.010000   
     42. D(H   7,P   5,Ru  0,H  12)     26.2536         0.010000   
     43. D(H   7,P   5,Ru  0,H   9)   -164.7844         0.010000   
     44. D(H   8,P   5,P   1,H   3)     47.0073         0.010000   
     45. D(H   7,P   5,Ru  0,H  10)   -153.7214         0.010000   
     46. D(H   6,P   5,Ru  0,H  12)    -81.1153         0.010000   
     47. D(H   8,P   5,Ru  0,H   9)    -39.9351         0.010000   
     48. D(H   7,P   5,P   1,H   2)   -176.7134         0.010000   
     49. D(H   6,P   5,Ru  0,H  10)     98.9096         0.010000   
     50. D(H   6,P   5,P   1,H   4)    -56.9560         0.010000   
     51. D(H   6,P   5,P   1,H   3)    174.4245         0.010000   
     52. D(H   6,P   5,Ru  0,H   9)     87.8467         0.010000   
     53. D(H   7,P   5,P   1,H   3)    -77.7394         0.010000   
     54. D(H   7,P   5,P   1,H   4)     50.8801         0.010000   
     55. D(H   8,P   5,P   1,H   2)    -51.9667         0.010000   
     56. D(H   6,P   5,P   1,H   2)     75.4506         0.010000   
     57. D(H   8,P   5,Ru  0,H  10)    -28.8721         0.010000   
     58. D(H  11,H  10,Ru  0,H   9)   -131.5360         0.010000   
     59. D(H  11,H  10,Ru  0,P   5)    176.0438         0.010000   
     60. D(H  11,H  10,Ru  0,P   1)     -3.5352         0.010000   
    -----------------------------------------------------------------

Number of atoms                         .... 13
Number of degrees of freedom            .... 60


         *************************************************************
         *                GEOMETRY OPTIMIZATION CYCLE   1            *
         *************************************************************
---------------------------------
CARTESIAN COORDINATES (ANGSTROEM)
---------------------------------
  Ru     2.365850   -3.108700   -1.210220
  P      0.673580   -3.816720   -3.792110
  H      1.566590   -4.480240   -4.726200
  H     -0.049780   -5.034080   -3.468100
  H     -0.267260   -3.411910   -4.821900
  P      4.087420   -2.462600    1.369470
  H      5.005950   -1.343210    1.253950
  H      3.329670   -1.856630    2.450580
  H      4.954230   -3.211380    2.262590
  H      2.954230   -3.511380   -1.362590
  H      3.610420   -4.515150   -1.664400
  H      3.528190   -5.025350   -2.293570
  H      1.188660   -1.779000   -0.779870

----------------------------
CARTESIAN COORDINATES (A.U.)
----------------------------
  NO LB      ZA    FRAG     MASS         X           Y           Z
   0 Ru   16.0000*   0   101.070    4.470809   -5.874592   -2.286984
   1 P    15.0000    0    30.974    1.272882   -7.212556   -7.166049
   2 H     1.0000    0     1.008    2.960426   -8.466427   -8.931224
   3 H     1.0000    0     1.008   -0.094071   -9.513033   -6.553759
   4 H     1.0000    0     1.008   -0.505048   -6.447575   -9.112070
   5 P    15.0000    0    30.974    7.724104   -4.653640    2.587923
   6 H     1.0000    0     1.008    9.459875   -2.538299    2.369622
   7 H     1.0000    0     1.008    6.292164   -3.508522    4.630925
   8 H     1.0000    0     1.008    9.362138   -6.068629    4.275675
   9 H     1.0000    0     1.008    5.582686   -6.635547   -2.574922
  10 H     1.0000    0     1.008    6.822705   -8.532397   -3.145260
  11 H     1.0000    0     1.008    6.667313   -9.496535   -4.334219
  12 H     1.0000    0     1.008    2.246242   -3.361823   -1.473741
* core charge reduced due to ECP

--------------------------------
INTERNAL COORDINATES (ANGSTROEM)
--------------------------------
 Ru     0   0   0     0.000000000000     0.00000000     0.00000000
 P      1   0   0     3.167211083177     0.00000000     0.00000000
 H      2   1   0     1.452669879429   107.32730612     0.00000000
 H      2   1   3     1.452651898873   105.75801297    99.24764394
 H      2   1   3     1.452418151153   149.51848717   227.64001853
 P      1   2   3     3.167972375353   178.76033413   316.82602087
 H      6   1   2     1.452610134689   115.85099611   118.75951539
 H      6   1   2     1.452647078784   114.05651945   226.12847301
 H      6   1   2     1.452478708587   136.04448941   350.97778333
 H      1   2   3     0.729080807387    97.89522269   347.64465577
 H     10   1   2     1.236619911331   158.05585546   307.29728973
 H     11  10   1     0.814199423851   130.06396628    53.29973972
 H      1   2   3     1.827314835654    90.59843443   156.70097447

---------------------------
INTERNAL COORDINATES (A.U.)
---------------------------
 Ru     0   0   0     0.000000000000     0.00000000     0.00000000
 P      1   0   0     5.985161555525     0.00000000     0.00000000
 H      2   1   0     2.745148235117   107.32730612     0.00000000
 H      2   1   3     2.745114256791   105.75801297    99.24764394
 H      2   1   3     2.744672537616   149.51848717   227.64001853
 P      1   2   3     5.986600189245   178.76033413   316.82602087
 H      6   1   2     2.745035333920   115.85099611   118.75951539
 H      6   1   2     2.745105148143   114.05651945   226.12847301
 H      6   1   2     2.744786974582   136.04448941   350.97778333
 H      1   2   3     1.377763055460    97.89522269   347.64465577
 H     10   1   2     2.336872964169   158.05585546   307.29728973
 H     11  10   1     1.538613929476   130.06396628    53.29973972
 H      1   2   3     3.453124599837    90.59843443   156.70097447

---------------------
BASIS SET INFORMATION
---------------------
There are 3 groups of distinct atoms

 Group   1 Type Ru  : 7s6p5d1f contracted to 5s3p2d1f pattern {31111/411/41/1}
 Group   2 Type P   : 10s7p1d contracted to 4s3p1d pattern {5311/511/1}
 Group   3 Type H   : 4s1p contracted to 2s1p pattern {31/1}

Atom   0Ru   basis set group =>   1
Atom   1P    basis set group =>   2
Atom   2H    basis set group =>   3
Atom   3H    basis set group =>   3
Atom   4H    basis set group =>   3
Atom   5P    basis set group =>   2
Atom   6H    basis set group =>   3
Atom   7H    basis set group =>   3
Atom   8H    basis set group =>   3
Atom   9H    basis set group =>   3
Atom  10H    basis set group =>   3
Atom  11H    basis set group =>   3
Atom  12H    basis set group =>   3
---------------------------------
AUXILIARY/J BASIS SET INFORMATION
---------------------------------
There are 3 groups of distinct atoms

 Group   1 Type Ru  : 11s5p5d3f3g contracted to 8s5p5d2f3g pattern {41111111/11111/11111/21/111}
 Group   2 Type P   : 14s5p5d2f1g contracted to 8s4p3d1f1g pattern {71111111/2111/311/2/1}
 Group   3 Type H   : 5s2p1d contracted to 3s1p1d pattern {311/2/1}

Atom   0Ru   basis set group =>   1
Atom   1P    basis set group =>   2
Atom   2H    basis set group =>   3
Atom   3H    basis set group =>   3
Atom   4H    basis set group =>   3
Atom   5P    basis set group =>   2
Atom   6H    basis set group =>   3
Atom   7H    basis set group =>   3
Atom   8H    basis set group =>   3
Atom   9H    basis set group =>   3
Atom  10H    basis set group =>   3
Atom  11H    basis set group =>   3
Atom  12H    basis set group =>   3
-------------------------
ECP PARAMETER INFORMATION
-------------------------

 Group 1, Type Ru ECP Def2-ECP (replacing 28 core electrons, lmax=3)

Atom   0Ru   ECP group =>   1



           ************************************************************
           *        Program running with 32 parallel MPI-processes    *
           *              working on a common directory               *
           ************************************************************
------------------------------------------------------------------------------
                             ORCA STARTUP CALCULATIONS
                           -- RI-GTO INTEGRALS CHOSEN --
------------------------------------------------------------------------------
------------------------------------------------------------------------------
                   ___                                                        
                  /   \      - P O W E R E D   B Y -                         
                 /     \                                                     
                 |  |  |   _    _      __       _____    __    __             
                 |  |  |  | |  | |    /  \     |  _  \  |  |  /  |          
                  \  \/   | |  | |   /    \    | | | |  |  | /  /          
                 / \  \   | |__| |  /  /\  \   | |_| |  |  |/  /          
                |  |  |   |  __  | /  /__\  \  |    /   |      \           
                |  |  |   | |  | | |   __   |  |    \   |  |\   \          
                \     /   | |  | | |  |  |  |  | |\  \  |  | \   \       
                 \___/    |_|  |_| |__|  |__|  |_| \__\ |__|  \__/        
                                                                              
                      - O R C A' S   B I G   F R I E N D -                    
                                      &                                       
                       - I N T E G R A L  F E E D E R -                       
                                                                              
 v1 FN, 2020, v2 2021, v3 2022-2024                                           
------------------------------------------------------------------------------


----------------------
SHARK INTEGRAL PACKAGE
----------------------

Number of atoms                             ...     13
Number of basis functions                   ...    117
Number of shells                            ...     57
Maximum angular momentum                    ...      3
Integral batch strategy                     ... SHARK/LIBINT Hybrid
RI-J (if used) integral strategy            ... SPLIT-RIJ (Revised 2003 algorithm where possible)
Printlevel                                  ...      1
Contraction scheme used                     ... SEGMENTED contraction
Prescreening option                         ... SCHWARTZ
   Thresh                                   ... 2.500e-11
   Tcut                                     ... 2.500e-12
   Tpresel                                  ... 2.500e-12 
Coulomb Range Separation                    ... NOT USED
Exchange Range Separation                   ... Long Range
   Mu parameter                             ... 3.000e-01
   Scaling (regular/separated)              ... 1.670e-01 8.330e-01
Robust (split-)RI terms used:
  metric    (central integrals)             ... YES
  density   (r.h.s.  integrals)             ... YES
  potential (l.h.s.  integrals)             ... YES
Multipole approximations                    ... NOT USED
Finite Nucleus Model                        ... NOT USED
CABS basis                                  ... NOT available
Auxiliary Coulomb fitting basis             ... AVAILABLE
   # of basis functions in Aux-J            ...    301
   # of shells in Aux-J                     ...    107
   Maximum angular momentum in Aux-J        ...      4
Auxiliary J/K fitting basis                 ... NOT available
Auxiliary Correlation fitting basis         ... NOT available
Auxiliary 'external' fitting basis          ... NOT available

Checking pre-screening integrals            ... done (  0.0 sec) Dimension = 57
   => SHARK Basis and OBASIS are compatible. Storing Pre-screening
Shell pair information
Shell pair cut-off parameter TPreSel        ...   2.5e-12
Total number of shell pairs                 ...      1653
Shell pairs after pre-screening             ...      1467
Total number of primitive shell pairs       ...      5656
Primitive shell pairs kept                  ...      3719
          la=0 lb=0:    514 shell pairs
          la=1 lb=0:    545 shell pairs
          la=1 lb=1:    155 shell pairs
          la=2 lb=0:    122 shell pairs
          la=2 lb=1:     66 shell pairs
          la=2 lb=2:     10 shell pairs
          la=3 lb=0:     31 shell pairs
          la=3 lb=1:     19 shell pairs
          la=3 lb=2:      4 shell pairs
          la=3 lb=3:      1 shell pairs

Checking whether 4 symmetric matrices of dimension 117 fit in memory
:Max Core in MB      =   4096.00
 MB in use           =      5.14
 MB left             =   4090.86
 MB needed           =      0.21
 Data fit in memory  = YES
Calculating RI/J V-Matrix + Cholesky decomp.... done (  0.1 sec)
Calculating Nuclear repulsion               ... done (  0.0 sec) ENN=    199.371770283546 Eh

Diagonalization of the overlap matrix:
Smallest eigenvalue                        ... 1.024e-03
Time for diagonalization                   ...    0.002 sec
Threshold for overlap eigenvalues          ... 1.000e-07
Number of eigenvalues below threshold      ... 0
Time for construction of square roots      ...    0.003 sec
Total time needed                          ...    0.007 sec

-------------------
DFT GRID GENERATION
-------------------

General Integration Accuracy     IntAcc      ... 4.959
Radial Grid Type                 RadialGrid  ... OptM3 with GC (2021)
Angular Grid (max. ang.)         AngularGrid ... 6 (Lebedev-590)
Angular grid pruning method      GridPruning ... 4 (adaptive)
Weight generation scheme         WeightScheme... mBecke (2022)
Basis function cutoff            BFCut       ... 1.0000e-11
Integration weight cutoff        WCut        ... 1.0000e-14
Partially contracted basis set               ... off
Rotationally invariant grid construction     ... off
Angular grids for H and He will be reduced by one unit

Total number of grid points                  ...   145883
Total number of batches                      ...     2286
Average number of points per batch           ...       63
Average number of grid points per atom       ...    11222

--------------------
COSX GRID GENERATION
--------------------

GRIDX 1
-------
General Integration Accuracy     IntAcc      ... 4.020
Radial Grid Type                 RadialGrid  ... OptM3 with GC (2021)
Angular Grid (max. ang.)         AngularGrid ... 2 (Lebedev-110)
Angular grid pruning method      GridPruning ... 4 (adaptive)
Weight generation scheme         WeightScheme... mBecke (2022)
Basis function cutoff            BFCut       ... 1.0000e-11
Integration weight cutoff        WCut        ... 1.0000e-14
Partially contracted basis set               ... on
Rotationally invariant grid construction     ... off
Angular grids for H and He will be reduced by one unit

Total number of grid points                  ...    17485
Total number of batches                      ...      143
Average number of points per batch           ...      122
Average number of grid points per atom       ...     1345
UseSFitting                                  ... on

GRIDX 2
-------
General Integration Accuracy     IntAcc      ... 4.338
Radial Grid Type                 RadialGrid  ... OptM3 with GC (2021)
Angular Grid (max. ang.)         AngularGrid ... 3 (Lebedev-194)
Angular grid pruning method      GridPruning ... 4 (adaptive)
Weight generation scheme         WeightScheme... mBecke (2022)
Basis function cutoff            BFCut       ... 1.0000e-11
Integration weight cutoff        WCut        ... 1.0000e-14
Partially contracted basis set               ... on
Rotationally invariant grid construction     ... off
Angular grids for H and He will be reduced by one unit

Total number of grid points                  ...    32637
Total number of batches                      ...      261
Average number of points per batch           ...      125
Average number of grid points per atom       ...     2511
UseSFitting                                  ... on

GRIDX 3
-------
General Integration Accuracy     IntAcc      ... 4.871
Radial Grid Type                 RadialGrid  ... OptM3 with GC (2021)
Angular Grid (max. ang.)         AngularGrid ... 4 (Lebedev-302)
Angular grid pruning method      GridPruning ... 4 (adaptive)
Weight generation scheme         WeightScheme... mBecke (2022)
Basis function cutoff            BFCut       ... 1.0000e-11
Integration weight cutoff        WCut        ... 1.0000e-14
Partially contracted basis set               ... on
Rotationally invariant grid construction     ... off
Angular grids for H and He will be reduced by one unit

Total number of grid points                  ...    66034
Total number of batches                      ...      522
Average number of points per batch           ...      126
Average number of grid points per atom       ...     5080
UseSFitting                                  ... on
Grids setup in   1.7 sec
Initializing property integral containers    ... done (  0.0 sec)

SHARK setup successfully completed in   2.0 seconds

Maximum memory used throughout the entire STARTUP-calculation: 30.2 MB


           ************************************************************
           *        Program running with 32 parallel MPI-processes    *
           *              working on a common directory               *
           ************************************************************
-------------------------------------------------------------------------------
                                 ORCA GUESS
                   Start orbitals & Density for SCF / CASSCF
-------------------------------------------------------------------------------

------------
SCF SETTINGS
------------
Hamiltonian:
 Density Functional     Method          .... DFT(GTOs)
 Exchange Functional    Exchange        .... WB97X-V
 Correlation Functional Correlation     .... WB97X-V
 Gradients option       PostSCFGGA      .... off
 Hybrid DFT is turned on
   Fraction HF Exchange ScalHFX         ....  0.167000
   Scaling of DF-GGA-X  ScalDFX         ....  0.000000
   Scaling of DF-GGA-C  ScalDFC         ....  1.000000
   Scaling of DF-LDA-C  ScalLDAC        ....  1.000000
   Perturbative correction              ....  0.000000
 Long-range corrected/Screened/Range-Separated Hybrid DFT is turned on
   Amount of maximum screened exact exchange              ....  0.833000
   Range separation parameter mu (erf(mu*r12)/r12)        ....  0.300000
 RI-approximation to the Coulomb term is turned on
   Number of AuxJ basis functions       .... 301
   RIJ-COSX (HFX calculated with COS-X)).... on


General Settings:
 Integral files         IntName         .... 15h_ph3_opt
 Hartree-Fock type      HFTyp           .... RHF
 Total Charge           Charge          ....    0
 Multiplicity           Mult            ....    1
 Number of Electrons    NEL             ....   56
 Basis Dimension        Dim             ....  117
 Nuclear Repulsion      ENuc            ....    199.3717702835 Eh

Convergence Acceleration:
 AO-DIIS                CNVDIIS         .... on
   Start iteration      DIISMaxIt       ....    12
   Startup error        DIISStart       ....  0.200000
   # of expansion vecs  DIISMaxEq       ....     5
   Bias factor          DIISBfac        ....   1.050
   Max. coefficient     DIISMaxC        ....  10.000
 MO-DIIS                CNVKDIIS        .... off
 Trust-Rad. Augm. Hess. CNVTRAH         .... auto
   Auto Start mean grad. ratio tolernc. ....  1.125000
   Auto Start start iteration           ....    50
   Auto Start num. interpolation iter.  ....    10
   Max. Number of Micro iterations      ....    24
   Max. Number of Macro iterations      .... Maxiter - #DIIS iter
   Number of Davidson start vectors     ....     2
   Converg. threshold    (grad. norm)   ....   1.000e-05
   Grad. Scal. Fac. for Micro threshold ....   0.100
   Minimum threshold for Micro iter.    ....   1.000e-02
   NR start threshold (gradient norm)   ....   1.000e-04
   Initial trust radius                 ....   0.400
   Minimum AH scaling param. (alpha)    ....   1.000
   Maximum AH scaling param. (alpha)    .... 1000.000
   Quad. conv. algorithm                .... NR
   White noise on init. David. guess    .... on
   Maximum white noise                  ....   0.010
   Pseudo random numbers                .... off
   Inactive MOs                         .... canonical
   Orbital update algorithm             .... Taylor
   Preconditioner                       .... Diag
   Full preconditioner red. dimension   ....   250
 SOSCF                 CNVSOSCF           .... on
   Start iteration     SOSCFMaxIt         ....   150
   Startup grad/error  SOSCFStart         ....  0.003300
   Hessian update      SOSCFHessUp        .... L-BFGS
   Autom. constraints  SOSCFAutoConstrain .... off
 Level Shifting         CNVShift        .... on
   Level shift para.    LevelShift      ....    0.2500
   Turn off err/grad.   ShiftErr        ....    0.0010
 Zerner damping         CNVZerner       .... off
 Static damping         CNVDamp         .... on
   Fraction old density DampFac         ....    0.7000
   Max. Damping (<1)    DampMax         ....    0.9800
   Min. Damping (>=0)   DampMin         ....    0.0000
   Turn off err/grad.   DampErr         ....    0.1000

SCF Procedure:
 Maximum # iterations   MaxIter         ....   125
 SCF integral mode      SCFMode         .... Direct
   Integral package                     .... SHARK and LIBINT hybrid scheme
 Reset frequency        DirectResetFreq ....    20
 Integral Threshold     Thresh          ....  2.500e-11 Eh
 Primitive CutOff       TCut            ....  2.500e-12 Eh

Convergence Tolerance:
 Convergence Check Mode ConvCheckMode   .... Total+1el-Energy
 Convergence forced     ConvForced      .... 0
 Energy Change          TolE            ....  1.000e-08 Eh
 1-El. energy change                    ....  1.000e-05 Eh
 Orbital Gradient       TolG            ....  1.000e-05
 Orbital Rotation angle TolX            ....  1.000e-05
 DIIS Error             TolErr          ....  5.000e-07

------------------------------
INITIAL GUESS: MODEL POTENTIAL
------------------------------
Loading Hartree-Fock densities                     ... done
Atomic calculation to generate a density for atom 0 (Ru with ECP)
  Multiplicity assumed   :    5
  Atomic configuration   : 1s2 2s2 2p6 3s2 3p6 4s2 3d10 4p6 5s2 4d6 
  Number of open shells  : 1
  Command: /cluster/projects/nn14654k/ylvaos/orca_6_1_1_linux_x86-64_shared_openmpi418/orca 15h_ph3_opt_atom44.inp "" > 15h_ph3_opt_atom44.out
Returned from the atomic calculation with res=0
Calculating cut-offs                               ... done
Initializing the effective Hamiltonian             ... done
Setting up the integral package (SHARK)            ... done
Starting the Coulomb interaction                   ... done (   0.0 sec)
Making the grid                                    ... done (   0.1 sec)
Mapping shells                                     ... done
Starting the XC term evaluation                    ... done (   0.0 sec)
  promolecular density results
     # of electrons  =     83.990701628
     EX              =   -135.549228116
     EC              =     -4.825852520
     EX+EC           =   -140.375080636
Transforming the Hamiltonian                       ... done (   0.0 sec)
Diagonalizing the Hamiltonian                      ... done (   0.0 sec)
Back transforming the eigenvectors                 ... done (   0.0 sec)
Now organizing SCF variables                       ... done
                      ------------------
                      INITIAL GUESS DONE (   2.5 sec)
                      ------------------
             **** ENERGY FILE WAS UPDATED (15h_ph3_opt.en.tmp) ****
Finished Guess after   2.8 sec
Maximum memory used throughout the entire GUESS-calculation: 8.8 MB


           ************************************************************
           *        Program running with 32 parallel MPI-processes    *
           *              working on a common directory               *
           ************************************************************

-------------------------------------------------------------------------------------------
                                      ORCA LEAN-SCF
                              memory conserving SCF solver
-------------------------------------------------------------------------------------------

----------------------------------------D-I-I-S--------------------------------------------
Iteration    Energy (Eh)           Delta-E    RMSDP     MaxDP     DIISErr   Damp  Time(sec)
-------------------------------------------------------------------------------------------
               ***  Starting incremental Fock matrix formation  ***
    1    -781.9255720139989307     0.00e+00  2.72e-02  1.46e-01  3.83e-01  0.700   0.3
    2    -781.9603884060289829    -3.48e-02  2.09e-02  1.12e-01  2.72e-01  0.700   0.2
                               ***Turning on AO-DIIS***
    3    -781.9840474674447250    -2.37e-02  1.28e-02  7.15e-02  1.92e-01  0.700   0.2
    4    -782.0001467347095740    -1.61e-02  9.25e-03  4.98e-02  1.35e-01  0.700   0.2
    5    -782.0115643522910887    -1.14e-02  7.01e-03  3.53e-02  9.48e-02  0.700   0.2
    6    -782.0197888345459205    -8.22e-03  1.80e-02  8.37e-02  6.64e-02  0.000   0.2
                              *** Initializing SOSCF ***
---------------------------------------S-O-S-C-F--------------------------------------
Iteration    Energy (Eh)           Delta-E    RMSDP     MaxDP     MaxGrad    Time(sec)
--------------------------------------------------------------------------------------
    7    -782.0403203416985889    -2.05e-02  2.71e-03  1.76e-02  2.49e-03     0.2
               *** Restarting incremental Fock matrix formation ***
    8    -782.0405346628147072    -2.14e-04  2.46e-03  1.46e-02  1.97e-03     0.2
    9    -782.0406655402142633    -1.31e-04  2.85e-03  1.66e-02  1.15e-03     0.2
   10    -782.0407280251465636    -6.25e-05  5.96e-04  2.25e-03  4.92e-04     0.2
   11    -782.0407366043909860    -8.58e-06  1.32e-03  6.42e-03  4.38e-04     0.2
   12    -782.0407499041771189    -1.33e-05  8.27e-04  4.11e-03  4.12e-04     0.2
   13    -782.0407565156666578    -6.61e-06  1.32e-03  8.07e-03  4.37e-04     0.2
   14    -782.0407659670191833    -9.45e-06  1.57e-03  1.05e-02  3.46e-04     0.2
   15    -782.0407755970337575    -9.63e-06  1.31e-03  9.01e-03  3.67e-04     0.2
   16    -782.0407822368039206    -6.64e-06  8.26e-04  5.86e-03  2.73e-04     0.2
   17    -782.0407861741366560    -3.94e-06  5.90e-04  3.92e-03  1.92e-04     0.2
   18    -782.0407887681125203    -2.59e-06  3.76e-04  1.94e-03  1.44e-04     0.2
   19    -782.0407899800894711    -1.21e-06  1.66e-04  7.99e-04  8.23e-05     0.2
   20    -782.0407902729344869    -2.93e-07  5.50e-05  2.53e-04  3.43e-05     0.2
   21    -782.0407903252699953    -5.23e-08  2.56e-05  1.08e-04  2.32e-05     0.2
   22    -782.0407903377857792    -1.25e-08  2.02e-05  8.27e-05  1.35e-05     0.2
   23    -782.0407903415932651    -3.81e-09  1.22e-05  4.76e-05  5.36e-06     0.2
                 **** Energy Check signals convergence ****

               *****************************************************
               *                     SUCCESS                       *
               *           SCF CONVERGED AFTER  23 CYCLES          *
               *****************************************************

Recomputing exchange energy using gridx3       ... done (    0.224 sec)
Old exchange energy                            :    -17.008931699 Eh
New exchange energy                            :    -17.008951961 Eh
Exchange energy change after final integration :     -0.000020263 Eh
Total energy after final integration           :   -782.040810604 Eh
             **** ENERGY FILE WAS UPDATED (15h_ph3_opt.en.tmp) ****

----------------
TOTAL SCF ENERGY
----------------

Total Energy       :       -782.04081060423073 Eh          -21280.41233 eV

Components:
Nuclear Repulsion  :        199.37177028354574 Eh            5425.18168 eV
Electronic Energy  :       -981.41256062524246 Eh          -26705.59346 eV
One Electron Energy:      -1508.77611035626410 Eh          -41055.88520 eV
Two Electron Energy:        527.36354973102164 Eh           14350.29174 eV

Virial components:
Potential Energy   :      -1504.16499290040542 Eh          -40930.41032 eV
Kinetic Energy     :        722.12418229617469 Eh           19649.99799 eV
Virial Ratio       :          2.08297274870028

DFT components:
N(Alpha)           :       27.999998068912 electrons
N(Beta)            :       27.999998068912 electrons
N(Total)           :       55.999996137825 electrons
E(X)               :      -40.998216665104 Eh       
E(C)               :       -2.547526267257 Eh       
E(XC)              :      -43.545742932361 Eh       

---------------
SCF CONVERGENCE
---------------

  Last Energy change         ...    3.8075e-09  Tolerance :   1.0000e-08
  Last MAX-Density change    ...    4.7648e-05  Tolerance :   1.0000e-07
  Last RMS-Density change    ...    1.2194e-05  Tolerance :   5.0000e-09
  Last DIIS Error            ...    2.4947e-03  Tolerance :   5.0000e-07
  Last Orbital Gradient      ...    5.3620e-06  Tolerance :   1.0000e-05
  Last Orbital Rotation      ...    5.5946e-05  Tolerance :   1.0000e-05


----------------
ORBITAL ENERGIES
----------------

  NO   OCC          E(Eh)            E(eV) 
   0   2.0000     -77.093316     -2097.8158 
   1   2.0000     -77.092131     -2097.7835 
   2   2.0000      -6.686535      -181.9499 
   3   2.0000      -6.685914      -181.9330 
   4   2.0000      -4.844312      -131.8204 
   5   2.0000      -4.844070      -131.8138 
   6   2.0000      -4.843640      -131.8021 
   7   2.0000      -4.843370      -131.7948 
   8   2.0000      -4.841379      -131.7406 
   9   2.0000      -4.840637      -131.7204 
  10   2.0000      -3.161049       -86.0165 
  11   2.0000      -2.092169       -56.9308 
  12   2.0000      -1.933700       -52.6186 
  13   2.0000      -1.923985       -52.3543 
  14   2.0000      -0.782247       -21.2860 
  15   2.0000      -0.779793       -21.2192 
  16   2.0000      -0.637388       -17.3442 
  17   2.0000      -0.505813       -13.7639 
  18   2.0000      -0.498571       -13.5668 
  19   2.0000      -0.497439       -13.5360 
  20   2.0000      -0.495145       -13.4736 
  21   2.0000      -0.490441       -13.3456 
  22   2.0000      -0.407734       -11.0950 
  23   2.0000      -0.396304       -10.7840 
  24   2.0000      -0.334871        -9.1123 
  25   2.0000      -0.329305        -8.9609 
  26   2.0000      -0.295414        -8.0386 
  27   2.0000      -0.255398        -6.9497 
  28   0.0000       0.013250         0.3605 
  29   0.0000       0.040194         1.0937 
  30   0.0000       0.053267         1.4495 
  31   0.0000       0.079062         2.1514 
  32   0.0000       0.107199         2.9170 
  33   0.0000       0.108914         2.9637 
  34   0.0000       0.112545         3.0625 
  35   0.0000       0.116198         3.1619 
  36   0.0000       0.122658         3.3377 
  37   0.0000       0.154788         4.2120 
  38   0.0000       0.190263         5.1773 
*Only the first 10 virtual orbitals were printed.

                    ********************************
                    * MULLIKEN POPULATION ANALYSIS *
                    ********************************

-----------------------
MULLIKEN ATOMIC CHARGES
-----------------------
   0 Ru:    0.170700
   1 P :    0.082838
   2 H :   -0.018058
   3 H :   -0.002025
   4 H :    0.017557
   5 P :    0.081848
   6 H :    0.005121
   7 H :    0.017933
   8 H :   -0.007221
   9 H :   -0.250306
  10 H :    0.027264
  11 H :    0.062879
  12 H :   -0.188529
Sum of atomic charges:    0.0000000

--------------------------------
MULLIKEN REDUCED ORBITAL CHARGES
--------------------------------
  0 Rus       :     2.443902  s :     2.443902
      pz      :     2.056307  p :     5.974648
      px      :     1.882610
      py      :     2.035731
      dz2     :     1.283505  d :     7.371365
      dxz     :     1.298947
      dyz     :     1.615777
      dx2y2   :     1.643512
      dxy     :     1.529623
      f0      :     0.003450  f :     0.039384
      f+1     :     0.005567
      f-1     :     0.002569
      f+2     :     0.001610
      f-2     :     0.005893
      f+3     :     0.004877
      f-3     :     0.015419

  1 P s       :     5.660878  s :     5.660878
      pz      :     3.131553  p :     9.157542
      px      :     2.963922
      py      :     3.062067
      dz2     :     0.011611  d :     0.098742
      dxz     :     0.035526
      dyz     :     0.015560
      dx2y2   :     0.009017
      dxy     :     0.027028

  2 H s       :     1.001512  s :     1.001512
      pz      :     0.006329  p :     0.016547
      px      :     0.005868
      py      :     0.004349

  3 H s       :     0.985372  s :     0.985372
      pz      :     0.003224  p :     0.016653
      px      :     0.004352
      py      :     0.009077

  4 H s       :     0.965424  s :     0.965424
      pz      :     0.007373  p :     0.017018
      px      :     0.006173
      py      :     0.003472

  5 P s       :     5.647096  s :     5.647096
      pz      :     3.199939  p :     9.172497
      px      :     2.988101
      py      :     2.984457
      dz2     :     0.014065  d :     0.098559
      dxz     :     0.027913
      dyz     :     0.019884
      dx2y2   :     0.001356
      dxy     :     0.035341

  6 H s       :     0.978123  s :     0.978123
      pz      :     0.002791  p :     0.016756
      px      :     0.005916
      py      :     0.008048

  7 H s       :     0.965282  s :     0.965282
      pz      :     0.007795  p :     0.016785
      px      :     0.005147
      py      :     0.003844

  8 H s       :     0.990551  s :     0.990551
      pz      :     0.006300  p :     0.016670
      px      :     0.005546
      py      :     0.004825

  9 H s       :     1.085518  s :     1.085518
      pz      :     0.055942  p :     0.164788
      px      :     0.054998
      py      :     0.053848

 10 H s       :     0.948018  s :     0.948018
      pz      :     0.009383  p :     0.024719
      px      :     0.005426
      py      :     0.009909

 11 H s       :     0.925306  s :     0.925306
      pz      :     0.006383  p :     0.011815
      px      :     0.000633
      py      :     0.004798

 12 H s       :     1.185167  s :     1.185167
      pz      :     0.000867  p :     0.003363
      px      :     0.001515
      py      :     0.000980



                     *******************************
                     * LOEWDIN POPULATION ANALYSIS *
                     *******************************

----------------------
LOEWDIN ATOMIC CHARGES
----------------------
   0 Ru:    0.254310
   1 P :    0.370525
   2 H :   -0.058060
   3 H :   -0.047013
   4 H :   -0.040238
   5 P :    0.383989
   6 H :   -0.043216
   7 H :   -0.035937
   8 H :   -0.056271
   9 H :   -0.822243
  10 H :    0.107149
  11 H :    0.116607
  12 H :   -0.129603

-------------------------------
LOEWDIN REDUCED ORBITAL CHARGES
-------------------------------
  0 Rus       :     2.242023  s :     2.242023
      pz      :     2.060672  p :     6.072632
      px      :     1.979239
      py      :     2.032721
      dz2     :     1.336732  d :     7.388051
      dxz     :     1.281079
      dyz     :     1.580867
      dx2y2   :     1.532598
      dxy     :     1.656775
      f0      :     0.003597  f :     0.042984
      f+1     :     0.006315
      f-1     :     0.002932
      f+2     :     0.001360
      f-2     :     0.005787
      f+3     :     0.002828
      f-3     :     0.020164

  1 P s       :     5.347328  s :     5.347328
      pz      :     3.112028  p :     9.152320
      px      :     2.961396
      py      :     3.078896
      dz2     :     0.014318  d :     0.129826
      dxz     :     0.047749
      dyz     :     0.020346
      dx2y2   :     0.011519
      dxy     :     0.035894

  2 H s       :     1.016065  s :     1.016065
      pz      :     0.017227  p :     0.041995
      px      :     0.013300
      py      :     0.011467

  3 H s       :     1.005024  s :     1.005024
      pz      :     0.007632  p :     0.041989
      px      :     0.010946
      py      :     0.023411

  4 H s       :     0.997894  s :     0.997894
      pz      :     0.019350  p :     0.042344
      px      :     0.015229
      py      :     0.007765

  5 P s       :     5.334843  s :     5.334843
      pz      :     3.170563  p :     9.151388
      px      :     2.986743
      py      :     2.994082
      dz2     :     0.017546  d :     0.129781
      dxz     :     0.037349
      dyz     :     0.026020
      dx2y2   :     0.001800
      dxy     :     0.047066

  6 H s       :     1.001254  s :     1.001254
      pz      :     0.007189  p :     0.041962
      px      :     0.014859
      py      :     0.019915

  7 H s       :     0.993782  s :     0.993782
      pz      :     0.020902  p :     0.042155
      px      :     0.011699
      py      :     0.009554

  8 H s       :     1.014246  s :     1.014246
      pz      :     0.016964  p :     0.042025
      px      :     0.014013
      py      :     0.011049

  9 H s       :     0.762864  s :     0.762864
      pz      :     0.358367  p :     1.059379
      px      :     0.353044
      py      :     0.347968

 10 H s       :     0.839875  s :     0.839875
      pz      :     0.022945  p :     0.052976
      px      :     0.006440
      py      :     0.023590

 11 H s       :     0.854951  s :     0.854951
      pz      :     0.016143  p :     0.028442
      px      :     0.001182
      py      :     0.011117

 12 H s       :     1.111137  s :     1.111137
      pz      :     0.003690  p :     0.018466
      px      :     0.008037
      py      :     0.006739



                      *****************************
                      * MAYER POPULATION ANALYSIS *
                      *****************************

  NA   - Mulliken gross atomic population
  ZA   - Total nuclear charge
  QA   - Mulliken gross atomic charge
  VA   - Mayer's total valence
  BVA  - Mayer's bonded valence
  FA   - Mayer's free valence

  ATOM       NA         ZA         QA         VA         BVA        FA
  0 Ru    15.8293    16.0000     0.1707     2.7363     2.7363    -0.0000
  1 P     14.9172    15.0000     0.0828     3.0808     3.0808     0.0000
  2 H      1.0181     1.0000    -0.0181     0.9705     0.9705    -0.0000
  3 H      1.0020     1.0000    -0.0020     0.9743     0.9743     0.0000
  4 H      0.9824     1.0000     0.0176     0.9812     0.9812    -0.0000
  5 P     14.9182    15.0000     0.0818     3.1236     3.1236     0.0000
  6 H      0.9949     1.0000     0.0051     0.9768     0.9768     0.0000
  7 H      0.9821     1.0000     0.0179     0.9783     0.9783    -0.0000
  8 H      1.0072     1.0000    -0.0072     0.9734     0.9734     0.0000
  9 H      1.2503     1.0000    -0.2503     1.3089     1.3089     0.0000
 10 H      0.9727     1.0000     0.0273     1.0343     1.0343    -0.0000
 11 H      0.9371     1.0000     0.0629     1.0001     1.0001    -0.0000
 12 H      1.1885     1.0000    -0.1885     0.9752     0.9752     0.0000

  Mayer bond orders larger than 0.100000
B(  0-Ru,  1-P ) :   0.1538 B(  0-Ru,  5-P ) :   0.1938 B(  0-Ru,  9-H ) :   1.1567 
B(  0-Ru, 11-H ) :   0.2168 B(  0-Ru, 12-H ) :   0.9155 B(  1-P ,  2-H ) :   0.9663 
B(  1-P ,  3-H ) :   0.9699 B(  1-P ,  4-H ) :   0.9742 B(  5-P ,  6-H ) :   0.9721 
B(  5-P ,  7-H ) :   0.9749 B(  5-P ,  8-H ) :   0.9648 B(  9-H , 10-H ) :   0.1227 
B( 10-H , 11-H ) :   0.8345 

-------
TIMINGS
-------

Total SCF time: 0 days 0 hours 0 min 5 sec 

Total time                  ....       5.756 sec
Sum of individual times     ....       5.491 sec  ( 95.4%)

SCF preparation             ....       0.323 sec  (  5.6%)
Fock matrix formation       ....       4.744 sec  ( 82.4%)
  Startup                   ....       0.023 sec  (  0.5% of F)
  Split-RI-J                ....       0.276 sec  (  5.8% of F)
  Chain of spheres X        ....       2.701 sec  ( 56.9% of F)
  XC integration            ....       1.322 sec  ( 27.9% of F)
    XC Preparation          ....       0.000 sec  (  0.0% of XC)
    Basis function eval.    ....       0.139 sec  ( 10.5% of XC)
    Density eval.           ....       0.053 sec  (  4.0% of XC)
    XC-Functional eval.     ....       0.134 sec  ( 10.2% of XC)
    XC-Potential eval.      ....       0.067 sec  (  5.1% of XC)
Diagonalization             ....       0.000 sec  (  0.0%)
Density matrix formation    ....       0.113 sec  (  2.0%)
Total Energy calculation    ....       0.043 sec  (  0.7%)
Population analysis         ....       0.015 sec  (  0.3%)
Orbital Transformation      ....       0.016 sec  (  0.3%)
Orbital Orthonormalization  ....       0.000 sec  (  0.0%)
DIIS solution               ....       0.071 sec  (  1.2%)
SOSCF solution              ....       0.165 sec  (  2.9%)
Finished LeanSCF after   5.8 sec

Maximum memory used throughout the entire LEANSCF-calculation: 9.6 MB
------------------------------------------------------------------------------
                           ORCA ORBITAL LOCALIZATION
------------------------------------------------------------------------------

Input orbitals are from                  ... 15h_ph3_opt.gbw
Output orbitals are to                   ... 15h_ph3_opt.loc
Max. number of iterations                ... 128
Localizations seeded randomly            ... on
Convergence tolerance                    ... 1.000e-06
Threshold for strong local MOs           ... 9.500e-01
Threshold for bond MOs                   ... 8.500e-01
Operator                                 ... 0
Orbital range for localization           ... 4 to 27
Localization criterion                   ... NEW-BOYS
Doing the dipole integrals               ... o.k.
Initial value of the localization sum :   571.349706
ITERATION   0 : L=  592.4437034841 DL=  2.11e+01 (AVERGE_DL)=    0.2764552890 
ITERATION   1 : L=  596.0698240040 DL=  3.63e+00 (AVERGE_DL)=    0.1146216290 
ITERATION   2 : L=  596.2374436176 DL=  1.68e-01 (AVERGE_DL)=    0.0246438114 
ITERATION   3 : L=  596.2531638270 DL=  1.57e-02 (AVERGE_DL)=    0.0075470047 
ITERATION   4 : L=  596.2613525505 DL=  8.19e-03 (AVERGE_DL)=    0.0054469522 
ITERATION   5 : L=  596.2670151209 DL=  5.66e-03 (AVERGE_DL)=    0.0045295209 
ITERATION   6 : L=  596.2715129634 DL=  4.50e-03 (AVERGE_DL)=    0.0040368962 
ITERATION   7 : L=  596.2754013199 DL=  3.89e-03 (AVERGE_DL)=    0.0037534315 
ITERATION   8 : L=  596.2789936027 DL=  3.59e-03 (AVERGE_DL)=    0.0036077025 
ITERATION   9 : L=  596.2825076960 DL=  3.51e-03 (AVERGE_DL)=    0.0035682240 
ITERATION  10 : L=  596.2861195149 DL=  3.61e-03 (AVERGE_DL)=    0.0036174991 
ITERATION  11 : L=  596.2899904103 DL=  3.87e-03 (AVERGE_DL)=    0.0037449945 
ITERATION  12 : L=  596.2942830679 DL=  4.29e-03 (AVERGE_DL)=    0.0039437428 
ITERATION  13 : L=  596.2991665840 DL=  4.88e-03 (AVERGE_DL)=    0.0042064116 
ITERATION  14 : L=  596.3048053966 DL=  5.64e-03 (AVERGE_DL)=    0.0045200089 
ITERATION  15 : L=  596.3113230303 DL=  6.52e-03 (AVERGE_DL)=    0.0048594871 
ITERATION  16 : L=  596.3187345341 DL=  7.41e-03 (AVERGE_DL)=    0.0051820145 
ITERATION  17 : L=  596.3268609516 DL=  8.13e-03 (AVERGE_DL)=    0.0054261903 
ITERATION  18 : L=  596.3352785993 DL=  8.42e-03 (AVERGE_DL)=    0.0055225649 
ITERATION  19 : L=  596.3433798440 DL=  8.10e-03 (AVERGE_DL)=    0.0054177796 
ITERATION  20 : L=  596.3505637327 DL=  7.18e-03 (AVERGE_DL)=    0.0051018215 
ITERATION  21 : L=  596.3564489937 DL=  5.89e-03 (AVERGE_DL)=    0.0046177277 
ITERATION  22 : L=  596.3609606866 DL=  4.51e-03 (AVERGE_DL)=    0.0040431069 
ITERATION  23 : L=  596.3642597961 DL=  3.30e-03 (AVERGE_DL)=    0.0034573538 
ITERATION  24 : L=  596.3666089913 DL=  2.35e-03 (AVERGE_DL)=    0.0029174607 
ITERATION  25 : L=  596.3682680786 DL=  1.66e-03 (AVERGE_DL)=    0.0024517720 
ITERATION  26 : L=  596.3694462806 DL=  1.18e-03 (AVERGE_DL)=    0.0020661190 
ITERATION  27 : L=  596.3702947990 DL=  8.49e-04 (AVERGE_DL)=    0.0017533802 
ITERATION  28 : L=  596.3709168374 DL=  6.22e-04 (AVERGE_DL)=    0.0015012536 
ITERATION  29 : L=  596.3713811284 DL=  4.64e-04 (AVERGE_DL)=    0.0012970018 
ITERATION  30 : L=  596.3717333335 DL=  3.52e-04 (AVERGE_DL)=    0.0011296484 
ITERATION  31 : L=  596.3720041467 DL=  2.71e-04 (AVERGE_DL)=    0.0009905590 
ITERATION  32 : L=  596.3722146364 DL=  2.10e-04 (AVERGE_DL)=    0.0008732949 
ITERATION  33 : L=  596.3723796233 DL=  1.65e-04 (AVERGE_DL)=    0.0007731614 
ITERATION  34 : L=  596.3725097906 DL=  1.30e-04 (AVERGE_DL)=    0.0006867463 
ITERATION  35 : L=  596.3726129983 DL=  1.03e-04 (AVERGE_DL)=    0.0006115072 
ITERATION  36 : L=  596.3726951552 DL=  8.22e-05 (AVERGE_DL)=    0.0005455914 
ITERATION  37 : L=  596.3727607597 DL=  6.56e-05 (AVERGE_DL)=    0.0004875421 
ITERATION  38 : L=  596.3728132748 DL=  5.25e-05 (AVERGE_DL)=    0.0004362020 
ITERATION  39 : L=  596.3728553999 DL=  4.21e-05 (AVERGE_DL)=    0.0003906756 
ITERATION  40 : L=  596.3728892482 DL=  3.38e-05 (AVERGE_DL)=    0.0003501977 
ITERATION  41 : L=  596.3729164852 DL=  2.72e-05 (AVERGE_DL)=    0.0003141419 
ITERATION  42 : L=  596.3729384268 DL=  2.19e-05 (AVERGE_DL)=    0.0002819546 
ITERATION  43 : L=  596.3729561224 DL=  1.77e-05 (AVERGE_DL)=    0.0002532088 
ITERATION  44 : L=  596.3729704055 DL=  1.43e-05 (AVERGE_DL)=    0.0002274864 
ITERATION  45 : L=  596.3729819424 DL=  1.15e-05 (AVERGE_DL)=    0.0002044516 
ITERATION  46 : L=  596.3729912677 DL=  9.33e-06 (AVERGE_DL)=    0.0001838129 
ITERATION  47 : L=  596.3729988130 DL=  7.55e-06 (AVERGE_DL)=    0.0001653428 
ITERATION  48 : L=  596.3730049175 DL=  6.10e-06 (AVERGE_DL)=    0.0001487201 
ITERATION  49 : L=  596.3730098597 DL=  4.94e-06 (AVERGE_DL)=    0.0001338148 
ITERATION  50 : L=  596.3730138626 DL=  4.00e-06 (AVERGE_DL)=    0.0001204305 
ITERATION  51 : L=  596.3730171066 DL=  3.24e-06 (AVERGE_DL)=    0.0001084145 
ITERATION  52 : L=  596.3730197352 DL=  2.63e-06 (AVERGE_DL)=    0.0000975891 
ITERATION  53 : L=  596.3730218656 DL=  2.13e-06 (AVERGE_DL)=    0.0000878569 
ITERATION  54 : L=  596.3730235943 DL=  1.73e-06 (AVERGE_DL)=    0.0000791434 
ITERATION  55 : L=  596.3730249975 DL=  1.40e-06 (AVERGE_DL)=    0.0000713028 
ITERATION  56 : L=  596.3730261350 DL=  1.14e-06 (AVERGE_DL)=    0.0000641957 
ITERATION  57 : L=  596.3730270589 DL=  9.24e-07 (AVERGE_DL)=    0.0000578573 
LOCALIZATION SUM CONVERGED


--------------------------------------------------------------------------------
                    LOCALIZED MOLECULAR ORBITAL COMPOSITIONS
--------------------------------------------------------------------------------

The Mulliken populations for each LMO on each atom are computed
The LMO`s will be ordered according to atom index and type
  (A) Strongly localized MO`s have populations of >=0.950 on one atom
  (B) Two center bond orbitals have populations of >=0.850 on two atoms
  (C) Other MO`s are considered to be `delocalized`

FOUND  -  15 strongly local MO`s
       -   9 two center bond MO`s
       -   0 significantly delocalized MO`s

Rather strongly localized orbitals:
MO  18:   5P  -   0.961238
MO  17:   5P  -   1.000450
MO  16:   5P  -   1.000445
MO  15:   5P  -   1.000244
MO  14:   1P  -   0.975160
MO  13:   1P  -   1.000425
MO  12:   1P  -   1.000279
MO  11:   1P  -   1.000471
MO  10:   0Ru -   0.981462
MO   9:   0Ru -   1.003921
MO   8:   0Ru -   0.989362
MO   7:   0Ru -   1.038420
MO   6:   0Ru -   0.976778
MO   5:   0Ru -   1.063511
MO   4:   0Ru -   0.981515
Bond-like localized orbitals:
MO  27:  12H  -   0.595688  and   0Ru -   0.404240
MO  26:  11H  -   0.459048  and  10H  -   0.475535
MO  25:   9H  -   0.679756  and   0Ru -   0.316521
MO  24:   8H  -   0.516716  and   5P  -   0.492281
MO  23:   7H  -   0.502766  and   5P  -   0.507692
MO  22:   6H  -   0.510088  and   5P  -   0.499122
MO  21:   4H  -   0.500786  and   1P  -   0.507533
MO  20:   3H  -   0.514845  and   1P  -   0.494448
MO  19:   2H  -   0.524715  and   1P  -   0.484802
Localized MO's were stored in: 15h_ph3_opt.loc


-------------------------------------------------------------------------------
                          DFT DISPERSION CORRECTION                            
                                                                               
                                DFTD4 V3.4.0                                   
-------------------------------------------------------------------------------
The WB97X-D3BJ functional is recognized
Active option DFTDOPT                   ...         5   

-------------------------   ----------------
Dispersion correction           -0.028877256
-------------------------   ----------------


-------------------------   --------------------
FINAL SINGLE POINT ENERGY      -782.069687860067
-------------------------   --------------------



           ************************************************************
           *        Program running with 32 parallel MPI-processes    *
           *              working on a common directory               *
           ************************************************************
------------------------------------------------------------------------------
                         ORCA SCF GRADIENT CALCULATION
------------------------------------------------------------------------------

Nuc. rep. gradient        (SHARK) ... done (  0.0 sec)
HCore & Overlap gradient  (SHARK) ... done (  0.0 sec)
ECP gradient              (SHARK) ... done (  0.1 sec)
Split-RIJ-J gradient      (SHARK) ... done (  0.1 sec)
COSX-gradient                     ... done (  0.5 sec)
XC gradient                       ... done (  0.1 sec)
Dispersion correction             ... done (  0.0 sec)

-------------------
DISPERSION GRADIENT
-------------------

   1   Ru  :   -0.012191510    0.008464710    0.003297334
   2   P   :   -0.002056087   -0.000658719   -0.002832138
   3   H   :   -0.000057688   -0.000056934   -0.000215272
   4   H   :   -0.000151482   -0.000096937   -0.000105680
   5   H   :   -0.000059017    0.000019910   -0.000066791
   6   P   :    0.001805241    0.000820000    0.002918219
   7   H   :    0.000110554    0.000087918    0.000083845
   8   H   :    0.000021283    0.000048493    0.000150476
   9   H   :    0.000069244   -0.000024802    0.000094249
  10   H   :    0.011908208   -0.007903910   -0.003187307
  11   H   :   -0.000519603   -0.001013905   -0.001410016
  12   H   :    0.000547525    0.000935216    0.001490955
  13   H   :    0.000573332   -0.000621041   -0.000217875

Difference to translation invariance:
           :   -0.0000000000   -0.0000000000   -0.0000000000

Difference to rotation invariance:
           :    0.0000000000    0.0000000000   -0.0000000000

Norm of the Dispersion gradient    ...    0.0218709701
RMS gradient                       ...    0.0035021581
MAX gradient                       ...    0.0121915096

------------------
CARTESIAN GRADIENT
------------------

   1   Ru  :    2.659912105   -1.783463914   -0.705656226
   2   P   :   -0.002856571    0.015721920    0.006202556
   3   H   :    0.007778498   -0.004342702   -0.005793332
   4   H   :   -0.005899429   -0.010414252    0.002150776
   5   H   :   -0.008634195   -0.000107815   -0.010590782
   6   P   :   -0.000960095   -0.009194268   -0.009061610
   7   H   :    0.008331950    0.010272788    0.001668484
   8   H   :   -0.004753677    0.006510885    0.011604940
   9   H   :    0.006884307   -0.003988631    0.008514729
  10   H   :   -2.643686299    1.778048175    0.704671363
  11   H   :   -0.011416855    0.025386204    0.011820697
  12   H   :    0.003145255   -0.016725611   -0.015451781
  13   H   :   -0.007844995   -0.007702779   -0.000079813

Difference to translation invariance:
           :    0.0000000000   -0.0000000001    0.0000000000

Difference to rotation invariance:
           :   -0.0000265905   -0.0000063726    0.0000399964

Norm of the Cartesian gradient     ...    4.6264356549
RMS gradient                       ...    0.7408226001
MAX gradient                       ...    2.6599121050

-------
TIMINGS
-------

Total SCF gradient time     ....        0.849 sec

Densities                   ....       0.001 sec  (  0.1%)
One electron gradient       ....       0.012 sec  (  1.5%)
RI-J Coulomb gradient       ....       0.096 sec  ( 11.3%)
COSX gradient               ....       0.487 sec  ( 57.3%)
XC gradient                 ....       0.089 sec  ( 10.5%)

Maximum memory used throughout the entire SCFGRAD-calculation: 27.8 MB
------------------------------------------------------------------------------
                         ORCA GEOMETRY RELAXATION STEP
------------------------------------------------------------------------------

Reading the OPT-File                    .... done
Getting information on internals        .... done
Copying old internal coords+grads       .... done
Making the new internal coordinates     .... (2022 redundants) done
Validating the new internal coordinates .... (2022 redundants) done
Calculating the B-matrix                .... done
Calculating the G,G- and P matrices     .... done
Transforming gradient to internals      .... done
Projecting the internal gradient        .... done
Number of atoms                         ....  13
Number of internal coordinates          ....  60
Current Energy                          ....  -782.069687860 Eh
Current gradient norm                   ....     4.626435655 Eh/bohr
Maximum allowed component of the step   ....  0.300
Current trust radius                    ....  0.300
Evaluating the initial hessian          ....  (Almloef) done
Projecting the Hessian                  .... done
Forming the augmented Hessian           .... done
Diagonalizing the augmented Hessian     .... done
Last element of RFO vector              ....  0.974066954
Lowest eigenvalues of augmented Hessian:
 -0.739095520  0.010000000  0.010000000  0.010000686  0.012722040
Length of the computed step             ....  0.232283784
The final length of the internal step   ....  0.232283784
Converting the step to Cartesian space:
 Initial RMS(Int)=    0.0299877076
Transforming coordinates:
 Iter   0:  RMS(Cart)=    0.0363053327 RMS(Int)=    0.0299675400
 Iter   5:  RMS(Cart)=    0.0000000720 RMS(Int)=    0.0000001667
done
Storing new coordinates                 .... done

                                .--------------------.
          ----------------------|Geometry convergence|-------------------------
          Item                value                   Tolerance       Converged
          ---------------------------------------------------------------------
          RMS gradient        0.4212797800            0.0001000000      NO
          MAX gradient        3.2628033840            0.0003000000      NO
          RMS step            0.0299877076            0.0020000000      NO
          MAX step            0.2256489444            0.0040000000      NO
          -------------------------------------------------------------------------
          ........................................................
          Max(Bonds)      0.1194      Max(Angles)    0.62
          Max(Dihed)        0.40      Max(Improp)    0.00
          ---------------------------------------------------------------------

The optimization has not yet converged - more geometry cycles are needed


    ---------------------------------------------------------------------------
                         Redundant Internal Coordinates
                            (Angstroem and degrees)

        Definition                    Value    dE/dq     Step     New-Value
    ----------------------------------------------------------------------------
     1. B(P   1,Ru  0)                3.1672  0.011493 -0.0079    3.1593   
     2. B(H   2,P   1)                1.4527  0.010490 -0.0052    1.4474   
     3. B(H   3,P   1)                1.4527  0.012144 -0.0061    1.4466   
     4. B(H   4,P   1)                1.4524  0.013072 -0.0065    1.4459   
     5. B(P   5,Ru  0)                3.1680  0.016260 -0.0112    3.1568   
     6. B(H   6,P   5)                1.4526  0.013052 -0.0065    1.4461   
     7. B(H   7,P   5)                1.4526  0.013832 -0.0069    1.4457   
     8. B(H   8,P   5)                1.4525  0.011401 -0.0057    1.4468   
     9. B(H   9,Ru  0)                0.7291 -3.262803  0.1194    0.8485   
    10. B(H  10,Ru  0)                1.9322 -0.010779  0.0063    1.9385   
    11. B(H  11,H  10)                0.8142  0.022104 -0.0126    0.8016   
    12. B(H  12,Ru  0)                1.8273 -0.000570  0.0003    1.8276   
    13. A(P   5,Ru  0,H  10)           89.42  0.000363   -0.02     89.40   
    14. A(P   1,Ru  0,H  12)           90.60 -0.008922    0.43     91.02   
    15. A(P   5,Ru  0,H   9)           81.04  0.000594    0.01     81.05   
    16. A(P   1,Ru  0,H   9)           97.90  0.003373   -0.23     97.66   
    17. A(P   5,Ru  0,H  12)           90.57  0.004684   -0.19     90.38   
    18. A(H   9,Ru  0,H  10)           13.84 -0.002861    0.14     13.98   
    19. A(H   9,Ru  0,H  12)          166.17  0.011231   -0.62    165.55   
    20. A(P   1,Ru  0,H  10)           89.42  0.003827   -0.21     89.20   
    21. A(H   3,P   1,H   4)           93.97 -0.003103    0.17     94.13   
    22. A(H   2,P   1,H   3)           93.83  0.001057   -0.05     93.78   
    23. A(H   2,P   1,H   4)           93.99 -0.001183    0.07     94.06   
    24. A(Ru  0,P   1,H   2)          107.33 -0.005324    0.31    107.63   
    25. A(Ru  0,P   1,H   3)          105.76 -0.001293    0.08    105.83   
    26. A(Ru  0,P   1,H   4)          149.52  0.007977   -0.45    149.07   
    27. A(Ru  0,P   5,H   6)          115.85  0.002953   -0.16    115.69   
    28. A(H   7,P   5,H   8)           93.94 -0.004013    0.22     94.16   
    29. A(H   6,P   5,H   8)           93.95 -0.003233    0.17     94.12   
    30. A(Ru  0,P   5,H   8)          136.04  0.001637   -0.09    135.95   
    31. A(H   6,P   5,H   7)           93.87 -0.002809    0.16     94.03   
    32. A(Ru  0,P   5,H   7)          114.06  0.002970   -0.16    113.90   
    33. A(Ru  0,H  10,H  11)          124.94  0.009710   -0.57    124.37   
    34. D(H   4,P   1,Ru  0,H   9)   -144.72 -0.002405    0.15   -144.56   
    35. D(H   2,P   1,Ru  0,H  12)    156.70  0.006147   -0.40    156.30   
    36. D(H   3,P   1,Ru  0,H  12)   -104.05  0.005049   -0.33   -104.38   
    37. D(H   4,P   1,Ru  0,H  10)   -155.68  0.000829   -0.04   -155.72   
    38. D(H   2,P   1,Ru  0,H   9)    -12.36 -0.003733    0.23    -12.12   
    39. D(H   3,P   1,Ru  0,H   9)     86.89 -0.004831    0.31     87.20   
    40. D(H   2,P   1,Ru  0,H  10)    -23.32 -0.000500    0.05    -23.28   
    41. D(H   3,P   1,Ru  0,H  10)     75.92 -0.001597    0.12     76.04   
    42. D(H   7,P   5,Ru  0,H  12)     26.25 -0.005817    0.38     26.64   
    43. D(H   7,P   5,Ru  0,H   9)   -164.78  0.004308   -0.26   -165.05   
    44. D(H   8,P   5,P   1,H   3)     47.01 -0.001876    0.12     47.13   
    45. D(H   7,P   5,Ru  0,H  10)   -153.72  0.000866   -0.06   -153.79   
    46. D(H   6,P   5,Ru  0,H  12)    -81.12 -0.005995    0.38    -80.73   
    47. D(H   8,P   5,Ru  0,H   9)    -39.94  0.003360   -0.20    -40.14   
    48. D(H   7,P   5,P   1,H   2)   -176.71 -0.000503    0.03   -176.68   
    49. D(H   6,P   5,Ru  0,H  10)     98.91  0.000689   -0.06     98.85   
    50. D(H   6,P   5,P   1,H   4)    -56.96  0.001482   -0.10    -57.06   
    51. D(H   6,P   5,P   1,H   3)    174.42  0.000624   -0.03    174.40   
    52. D(H   6,P   5,Ru  0,H   9)     87.85  0.004130   -0.26     87.58   
    53. D(H   7,P   5,P   1,H   3)    -77.74 -0.000675    0.05    -77.69   
[...]
      pz      :     0.006339  p :     0.042278
      px      :     0.005812
      py      :     0.030127

  7 H s       :     1.009772  s :     1.009772
      pz      :     0.026933  p :     0.042037
      px      :     0.009976
      py      :     0.005129

  8 H s       :     1.017994  s :     1.017994
      pz      :     0.008780  p :     0.042038
      px      :     0.025733
      py      :     0.007525

  9 H s       :     0.910813  s :     0.910813
      pz      :     0.019765  p :     0.059605
      px      :     0.020568
      py      :     0.019273

 10 H s       :     0.813807  s :     0.813807
      pz      :     0.018668  p :     0.073791
      px      :     0.018393
      py      :     0.036731

 11 H s       :     0.846065  s :     0.846065
      pz      :     0.019173  p :     0.063524
      px      :     0.023840
      py      :     0.020510

 12 H s       :     1.018721  s :     1.018721
      pz      :     0.010991  p :     0.037048
      px      :     0.011953
      py      :     0.014104



                      *****************************
                      * MAYER POPULATION ANALYSIS *
                      *****************************

  NA   - Mulliken gross atomic population
  ZA   - Total nuclear charge
  QA   - Mulliken gross atomic charge
  VA   - Mayer's total valence
  BVA  - Mayer's bonded valence
  FA   - Mayer's free valence

  ATOM       NA         ZA         QA         VA         BVA        FA
  0 Ru    16.4639    16.0000    -0.4639     4.3563     4.3563    -0.0000
  1 P     14.7262    15.0000     0.2738     3.8144     3.8144     0.0000
  2 H      1.0134     1.0000    -0.0134     0.9627     0.9627     0.0000
  3 H      1.0067     1.0000    -0.0067     0.9680     0.9680     0.0000
  4 H      0.9856     1.0000     0.0144     0.9669     0.9669     0.0000
  5 P     14.7260    15.0000     0.2740     3.8144     3.8144    -0.0000
  6 H      0.9856     1.0000     0.0144     0.9669     0.9669     0.0000
  7 H      1.0067     1.0000    -0.0067     0.9680     0.9680    -0.0000
  8 H      1.0135     1.0000    -0.0135     0.9627     0.9627     0.0000
  9 H      1.0165     1.0000    -0.0165     1.0039     1.0039    -0.0000
 10 H      0.9390     1.0000     0.0610     0.9964     0.9964    -0.0000
 11 H      1.0015     1.0000    -0.0015     1.0022     1.0022     0.0000
 12 H      1.1155     1.0000    -0.1155     0.9879     0.9879    -0.0000

  Mayer bond orders larger than 0.100000
B(  0-Ru,  1-P ) :   0.8263 B(  0-Ru,  5-P ) :   0.8265 B(  0-Ru,  9-H ) :   0.9373 
B(  0-Ru, 10-H ) :   0.4059 B(  0-Ru, 11-H ) :   0.4290 B(  0-Ru, 12-H ) :   0.8362 
B(  1-P ,  2-H ) :   0.9365 B(  1-P ,  3-H ) :   0.9433 B(  1-P ,  4-H ) :   0.9533 
B(  5-P ,  6-H ) :   0.9533 B(  5-P ,  7-H ) :   0.9433 B(  5-P ,  8-H ) :   0.9365 
B( 10-H , 11-H ) :   0.5590 

-------
TIMINGS
-------

Total SCF time: 0 days 0 hours 0 min 2 sec 

Total time                  ....       2.157 sec
Sum of individual times     ....       1.902 sec  ( 88.2%)

SCF preparation             ....       0.307 sec  ( 14.2%)
Fock matrix formation       ....       1.421 sec  ( 65.9%)
  Startup                   ....       0.010 sec  (  0.7% of F)
  Split-RI-J                ....       0.077 sec  (  5.4% of F)
  Chain of spheres X        ....       1.032 sec  ( 72.6% of F)
  XC integration            ....       0.350 sec  ( 24.7% of F)
    Basis function eval.    ....       0.045 sec  ( 12.9% of XC)
    Density eval.           ....       0.020 sec  (  5.6% of XC)
    XC-Functional eval.     ....       0.033 sec  (  9.5% of XC)
    XC-Potential eval.      ....       0.020 sec  (  5.7% of XC)
Diagonalization             ....       0.000 sec  (  0.0%)
Density matrix formation    ....       0.025 sec  (  1.2%)
Total Energy calculation    ....       0.013 sec  (  0.6%)
Population analysis         ....       0.073 sec  (  3.4%)
Orbital Transformation      ....       0.008 sec  (  0.4%)
Orbital Orthonormalization  ....       0.000 sec  (  0.0%)
DIIS solution               ....       0.009 sec  (  0.4%)
SOSCF solution              ....       0.046 sec  (  2.1%)
Finished LeanSCF after   2.3 sec

Maximum memory used throughout the entire LEANSCF-calculation: 11.7 MB
------------------------------------------------------------------------------
                           ORCA ORBITAL LOCALIZATION
------------------------------------------------------------------------------

Input orbitals are from                  ... 15h_ph3_opt.gbw
Output orbitals are to                   ... 15h_ph3_opt.loc
Max. number of iterations                ... 128
Localizations seeded randomly            ... on
Convergence tolerance                    ... 1.000e-06
Threshold for strong local MOs           ... 9.500e-01
Threshold for bond MOs                   ... 8.500e-01
Operator                                 ... 0
Orbital range for localization           ... 4 to 27
Localization criterion                   ... NEW-BOYS
Doing the dipole integrals               ... o.k.
Initial value of the localization sum :   268.625528
ITERATION   0 : L=  313.7967819906 DL=  4.52e+01 (AVERGE_DL)=    0.4045540320 
ITERATION   1 : L=  329.5177625004 DL=  1.57e+01 (AVERGE_DL)=    0.2386630979 
ITERATION   2 : L=  330.9217433183 DL=  1.40e+00 (AVERGE_DL)=    0.0713224160 
ITERATION   3 : L=  330.9472259121 DL=  2.55e-02 (AVERGE_DL)=    0.0096087584 
ITERATION   4 : L=  330.9552670671 DL=  8.04e-03 (AVERGE_DL)=    0.0053976495 
ITERATION   5 : L=  330.9619684047 DL=  6.70e-03 (AVERGE_DL)=    0.0049274952 
ITERATION   6 : L=  330.9668340959 DL=  4.87e-03 (AVERGE_DL)=    0.0041987279 
ITERATION   7 : L=  330.9700593437 DL=  3.23e-03 (AVERGE_DL)=    0.0034184325 
ITERATION   8 : L=  330.9721207449 DL=  2.06e-03 (AVERGE_DL)=    0.0027329188 
ITERATION   9 : L=  330.9734409774 DL=  1.32e-03 (AVERGE_DL)=    0.0021871102 
ITERATION  10 : L=  330.9743018481 DL=  8.61e-04 (AVERGE_DL)=    0.0017660964 
ITERATION  11 : L=  330.9748739066 DL=  5.72e-04 (AVERGE_DL)=    0.0014396790 
ITERATION  12 : L=  330.9752595619 DL=  3.86e-04 (AVERGE_DL)=    0.0011820753 
ITERATION  13 : L=  330.9755220903 DL=  2.63e-04 (AVERGE_DL)=    0.0009752897 
ITERATION  14 : L=  330.9757019214 DL=  1.80e-04 (AVERGE_DL)=    0.0008071938 
ITERATION  15 : L=  330.9758255997 DL=  1.24e-04 (AVERGE_DL)=    0.0006694098 
ITERATION  16 : L=  330.9759108752 DL=  8.53e-05 (AVERGE_DL)=    0.0005558501 
ITERATION  17 : L=  330.9759697720 DL=  5.89e-05 (AVERGE_DL)=    0.0004619461 
ITERATION  18 : L=  330.9760104925 DL=  4.07e-05 (AVERGE_DL)=    0.0003841068 
ITERATION  19 : L=  330.9760386662 DL=  2.82e-05 (AVERGE_DL)=    0.0003194975 
ITERATION  20 : L=  330.9760581655 DL=  1.95e-05 (AVERGE_DL)=    0.0002658004 
ITERATION  21 : L=  330.9760716673 DL=  1.35e-05 (AVERGE_DL)=    0.0002211776 
ITERATION  22 : L=  330.9760810167 DL=  9.35e-06 (AVERGE_DL)=    0.0001840505 
ITERATION  23 : L=  330.9760874941 DL=  6.48e-06 (AVERGE_DL)=    0.0001531950 
ITERATION  24 : L=  330.9760919795 DL=  4.49e-06 (AVERGE_DL)=    0.0001274813 
ITERATION  25 : L=  330.9760950870 DL=  3.11e-06 (AVERGE_DL)=    0.0001061088 
ITERATION  26 : L=  330.9760972399 DL=  2.15e-06 (AVERGE_DL)=    0.0000883204 
ITERATION  27 : L=  330.9760987311 DL=  1.49e-06 (AVERGE_DL)=    0.0000735023 
ITERATION  28 : L=  330.9760997652 DL=  1.03e-06 (AVERGE_DL)=    0.0000612105 
ITERATION  29 : L=  330.9761004802 DL=  7.15e-07 (AVERGE_DL)=    0.0000509002 
LOCALIZATION SUM CONVERGED


--------------------------------------------------------------------------------
                    LOCALIZED MOLECULAR ORBITAL COMPOSITIONS
--------------------------------------------------------------------------------

The Mulliken populations for each LMO on each atom are computed
The LMO`s will be ordered according to atom index and type
  (A) Strongly localized MO`s have populations of >=0.950 on one atom
  (B) Two center bond orbitals have populations of >=0.850 on two atoms
  (C) Other MO`s are considered to be `delocalized`

FOUND  -  12 strongly local MO`s
       -  12 two center bond MO`s
       -   0 significantly delocalized MO`s

Rather strongly localized orbitals:
MO  15:   5P  -   1.000607
MO  14:   5P  -   1.000486
MO  13:   5P  -   1.000482
MO  12:   1P  -   1.000607
MO  11:   1P  -   1.000486
MO  10:   1P  -   1.000482
MO   9:   0Ru -   0.976877
MO   8:   0Ru -   0.972110
MO   7:   0Ru -   0.978650
MO   6:   0Ru -   0.971660
MO   5:   0Ru -   0.978507
MO   4:   0Ru -   0.976912
Bond-like localized orbitals:
MO  27:  12H  -   0.560818  and   0Ru -   0.399885
MO  26:  11H  -   0.452825  and  10H  -   0.412335
MO  25:   9H  -   0.509762  and   0Ru -   0.473922
MO  24:   8H  -   0.521599  and   5P  -   0.491085
MO  23:   7H  -   0.516882  and   5P  -   0.493576
MO  22:   6H  -   0.506971  and   5P  -   0.505625
MO  21:   5P  -   0.787954  and   0Ru -   0.215294
MO  20:   4H  -   0.506968  and   1P  -   0.505668
MO  19:   3H  -   0.516875  and   1P  -   0.493573
MO  18:   2H  -   0.521563  and   1P  -   0.491124
MO  17:   1P  -   0.787946  and   0Ru -   0.215298
MO  16:   1P  -   0.000512  and   0Ru -   0.939537
Localized MO's were stored in: 15h_ph3_opt.loc


-------------------------------------------------------------------------------
                          DFT DISPERSION CORRECTION                            
                                                                               
                                DFTD4 V3.4.0                                   
-------------------------------------------------------------------------------
The WB97X-D3BJ functional is recognized
Active option DFTDOPT                   ...         5   

-------------------------   ----------------
Dispersion correction           -0.032407843
-------------------------   ----------------


-------------------------   --------------------
FINAL SINGLE POINT ENERGY      -783.460321923104
-------------------------   --------------------

                                *** OPTIMIZATION RUN DONE ***



           ************************************************************
           *        Program running with 32 parallel MPI-processes    *
           *              working on a common directory               *
           ************************************************************

------------------------------------------------------------------------------
                              ORCA PROPERTY CALCULATIONS
------------------------------------------------------------------------------

GBWName                                 ... 15h_ph3_opt.gbw
Number of atoms                         ...     13
Number of basis functions               ...    117
Max core memory                         ...   4096 MB

Electric properties:
Dipole moment                           ... YES
Quadrupole moment                       ...  NO
Static polarizability (Dipole/Dipole)   ...  NO
Static polarizability (Dipole/Quad.)    ...  NO
Static polarizability (Quad./Quad.)     ...  NO
Static polarizability (Velocity)        ...  NO
Static hyperpolarizability              ...  NO

Atomic electric properties:
Dipole moment                           ...  NO
Quadrupole moment                       ...  NO
Static polarizability                   ...  NO

Choice of electric origin               ... Center of mass
Position of electric origin             ...     4.558465    -6.540792    -2.240892

General magnetic properties:
Magnetizability                         ...  NO

EPR properties:
g-Tensor (aka g-matrix)                 ...  NO
Zero-Field splitting spin-orbit         ...  NO
Zero-field splitting spin-spin          ...  NO
Hyperfine couplings                     ...  NO (   0 nuclei)
Quadrupole couplings                    ...  NO (   0 nuclei)
Contact density                         ...  NO (   0 nuclei)

NMR properties:
Chemical shifts                         ...  NO (   0 nuclei)
Spin-rotation constants                 ...  NO (   0 nuclei)
Spin-spin couplings                     ...  NO (   0 nuclei,    0 pairs)

Choice of magnetic origin               ... GIAO
Position of magnetic origin             ...     0.000000     0.000000     0.000000

Properties with geometric perturbations:
SCF Hessian                             ...  NO
IR spectrum                             ...  NO
VCD spectrum                            ...  NO
X-ray spectroscopy properties:
SCF XES/XAS/RIXS spectra                ...  NO

SCF SOC stabilization energy            ...  NO
Diagonal Born-Oppenheimer correction    ...  NO

-------------
DIPOLE MOMENT
-------------

Method             : SCF
Type of density    : Electron Density
Multiplicity       :   1
Irrep              :   0
Energy             :  -783.4279140798928438 Eh
Basis              : AO
                                X                 Y                 Z
Electronic contribution:     -0.869689080      -9.320686519       3.186936021
Nuclear contribution   :      0.895262836       8.877150896      -3.075874623
                        -----------------------------------------
Total Dipole Moment    :      0.025573756      -0.443535623       0.111061398
                        -----------------------------------------
Magnitude (a.u.)       :      0.457943774
Magnitude (Debye)      :      1.164000569



--------------------
Rotational spectrum 
--------------------
 
Rotational constants in cm-1:             0.681632             0.044659             0.043665 
Rotational constants in MHz :         20434.815401          1338.852794          1309.056551 

Dipole components along the rotational axes: 
x,y,z [a.u.] :    -0.000324    -0.396997     0.228267 
x,y,z [Debye]:    -0.000823    -1.009087     0.580208 

 

Dipole moment calculation done in   0.0 sec 

Maximum memory used throughout the entire PROP-calculation: 7.4 MB

--------------------------------
SUGGESTED CITATIONS FOR THIS RUN
--------------------------------

Below you find a list of papers that are relevant to this ORCA run
We neither can nor want to force you to cite these papers, but we appreciate if you do
You receive ORCA, which is the product of decades of hard work by many enthusiastic individuals, for free
The only thing we kindly ask in return is that you cite our papers,
We deeply appreciate it, if you show your appreciation for ORCA by not just citing the generic ORCA reference.

Please note that relegating all ORCA citations to the supporting information does *not* help us.
SI sections are not indexed - citations you put there will not count into any citation statistics
But we need these citations in order to attract the funding resources that allow us to do what we are doing

Therefore, if you are a happy ORCA user, please consider citing a few of the papers listed below in the main body of your paper

In addition to the list printed below, the program has created the file 15h_ph3_opt.bibtex that contains the list in bibtex format
You can import this file easily into all common literature databanks and citation aid programs

It goes without saying that in many instances, there are alternative algorithms to achieve similar
results as the ones you have gotten from ORCA. It is, of course, also the case that in some instances
ORCA just re-implements algorithms worked out by others. We are fully aware of that and we are also
fully appreciative of our colleagues work. Hence this citation list should not be read as indicating
that the listed papers, which are focused on our own work, are the only ones worth citing. It simply
meant to make it easier for users to cite ORCA specific papers. It is not a substitute for doing your
own literature research and citing the relevant literature in a scientifically appropriate manner.

List of essential papers. We consider these as the minimum necessary citations

  1. Neese, F.
     Software update: the ORCA program system, version 6.0
     WIRES Comput. Molec. Sci. 2025 15(1), e70019
     doi.org/10.1002/wcms.70019

List of papers to cite with high priority. The work reported in these papers was absolutely
necessary for this run to complete.
Our perspective: the developers of density functionals and basis sets usually get cited in chemistry papers
Good! But without the algorithms to do something with them, the functionals or basis sets would not do anything.
Hence, in our opinion, the algorithm design and method developments papers are equally worthy of getting cited

  1. Neese, F.
     An improvement of the resolution of the identity approximation for the formation of the Coulomb matrix
     J. Comp. Chem. 2003 24(14), 1740-1747
     doi.org/10.1002/jcc.10318
  2. Neese, F.; Wennmohs, F.; Hansen, A.; Becker, U.
     Efficient, approximate and parallel Hartree-Fock and hybrid DFT calculations. A 'chain-of-spheres' algorithm for the Hartree-Fock exchange
     Chem. Phys. 2009 356(1-3), 98-109
     doi.org/10.1016/j.chemphys.2008.10.036
  3. Caldeweyher, E.; Bannwarth, C.; Grimme, S.
     Extension of the D3 dispersion coefficient model
     J. Chem. Phys. 2017 147 , 034112
     doi.org/10.1063/1.4993215
  4. Caldeweyher, E.; Ehlert, S.; Hansen, A.; Neugebauer, H.; Spicher, S.; Bannwarth, C.; Grimme, S.
     A generally applicable atomic-charge dependent London dispersion correction
     J. Chem. Phys. 2019 150 , 154122
     doi.org/10.1063/1.5090222
  5. Helmich-Paris, B.; de Souza, B.; Neese, F.; Izsák, R.
     An improved chain of spheres for exchange algorithm
     J. Chem. Phys. 2021 155(10), 104109
     doi.org/10.1063/5.0058766
  6. Neese, F.
     The SHARK Integral Generation and Digestion System
     J. Comp. Chem. 2022 44(3), 381
     doi.org/10.1002/jcc.26942

List of suggested additional citations. These are papers that are important in the 'surrounding' of 
of this run, or papers that preceded the highly important papers. If you like your results we are grateful for a citation.

  1. Izsak, R.; Neese, F.
     An overlap fitted chain of spheres exchange method
     J. Chem. Phys. 2011 135 , 144105
     doi.org/10.1063/1.3646921
  2. Izsak, R.; Hansen, A.; Neese, F.
     The resolution of identity and chain of spheres approximations for the LPNO-CCSD singles Fock term
     Molec. Phys. 2012 110 , 2413-2417
     doi.org/10.1080/00268976.2012.687466
  3. Neese, F.
     The ORCA program system
     WIRES Comput. Molec. Sci. 2012 2(1), 73-78
     doi.org/10.1002/wcms.81
  4. Izsak, R.; Neese, F.; Klopper, W.
     Robust fitting techniques in the chain of spheres approximation to the Fock exchange: The role of the complementary space
     J. Chem. Phys. 2013 139 , 
     doi.org/10.1063/1.4819264
  5. Neese, F.
     Software update: the ORCA program system, version 4.0
     WIRES Comput. Molec. Sci. 2018 8(1), 1-6
     doi.org/10.1002/wcms.1327
  6. Neese, F.; Wennmohs, F.; Becker, U.; Riplinger, C.
     The ORCA quantum chemistry program package
     J. Chem. Phys. 2020 152(22), 224108
     doi.org/10.1063/5.0004608
  7. Neese, F.
     Software update: The ORCA program system—Version 5.0
     WIRES Comput. Molec. Sci. 2022 12(1), e1606
     doi.org/10.1002/wcms.1606

List of optional additional citations

  1. Neese, F.
     Approximate second-order SCF convergence for spin unrestricted wavefunctions
     Chem. Phys. Lett. 2000 325(1-3), 93-98
     doi.org/10.1016/s0009-2614(00)00662-x

Timings for individual modules:

Sum of individual times          ...      432.527 sec (=   7.209 min)
Startup calculation              ...      119.976 sec (=   2.000 min)  27.7 %
SCF iterations                   ...      237.715 sec (=   3.962 min)  55.0 %
Property calculations            ...        0.648 sec (=   0.011 min)   0.1 %
SCF Gradient evaluation          ...       73.782 sec (=   1.230 min)  17.1 %
Geometry relaxation              ...        0.219 sec (=   0.004 min)   0.1 %
Orbital localization             ...        0.187 sec (=   0.003 min)   0.0 %
                             ****ORCA TERMINATED NORMALLY****
TOTAL RUN TIME: 0 days 0 hours 8 minutes 23 seconds 44 msec
