
                                 *****************
                                 * O   R   C   A *
                                 *****************

                                            #,                                       
                                            ###                                      
                                            ####                                     
                                            #####                                    
                                            ######                                   
                                           ########,                                 
                                     ,,################,,,,,                         
                               ,,#################################,,                 
                          ,,##########################################,,             
                       ,#########################################, ''#####,          
                    ,#############################################,,   '####,        
                  ,##################################################,,,,####,       
                ,###########''''           ''''###############################       
              ,#####''   ,,,,##########,,,,          '''####'''          '####       
            ,##' ,,,,###########################,,,                        '##       
           ' ,,###''''                  '''############,,,                           
         ,,##''                                '''############,,,,        ,,,,,,###''
      ,#''                                            '''#######################'''  
     '                                                          ''''####''''         
             ,#######,   #######,   ,#######,      ##                                
            ,#'     '#,  ##    ##  ,#'     '#,    #''#        ,####,    ,#,          
            ##       ##  ##   ,#'  ##            #'  '#       #'       ,# #          
            ##       ##  #######   ##           ,######,      #####,      #          
            '#,     ,#'  ##    ##  '#,     ,#' ,#      #,     #,   #      #          
             '#######'   ##     ##  '#######'  #'      '#     '####' #    #          



                #########################################################
                #                        -***-                          #
                #          Department of theory and spectroscopy        #
                #                                                       #
                #                      Frank Neese                      #
                #                                                       #
                #     Directorship, Architecture, Infrastructure        #
                #                    SHARK, DRIVERS                     #
                #        Core code/Algorithms in most modules           #
                #                                                       #
                #        Max Planck Institute fuer Kohlenforschung      #
                #                Kaiser Wilhelm Platz 1                 #
                #                 D-45470 Muelheim/Ruhr                 #
                #                      Germany                          #
                #                                                       #
                #                  All rights reserved                  #
                #                        -***-                          #
                #########################################################


                         Program Version 6.1.1  -  RELEASE   -
                                (GIT: $487d211c$)
                          ($2025-11-21 10:33:24 +0100$)


 With contributions from (in alphabetic order):
[Max-Planck-Institut fuer Kohlenforschung]                               
  Daniel Aravena         : Magnetic Suceptibility                        
  Michael Atanasov       : Ab Initio Ligand Field Theory (pilot matlab implementation)
  Alexander A. Auer      : GIAO ZORA, VPT2 properties, NMR spectrum      
  Ute Becker             : All parallelization in ORCA, NUMFREQ, NUMCALC 
  Giovanni Bistoni       : ED, misc. LED, open-shell LED, HFLD           
  Dmytro Bykov           : pre 5.0 version of the SCF Hessian            
  Marcos Casanova-Páez   : Triplet and SCS-CIS(D). UHF-(DLPNO)-IP/EA/STEOM-CCSD. UHF-CVS-IP/STEOM-CCSD   
  Vijay G. Chilkuri      : MRCI spin determinant printing, contributions to CSF-ICE 
  Pauline Colinet        : FMM embedding                                 
  Dipayan Datta          : RHF DLPNO-CCSD density                        
  Achintya Kumar Dutta   : EOM-CC, STEOM-CC                              
  Nicolas Foglia         : Exact transition moments, OPA infrastructure, MCD improvements    
  Dmitry Ganyushin       : Spin-Orbit,Spin-Spin,Magnetic field MRCI      
  Miquel Garcia-Rates    : C-PCM and meta-GGA Hessian, CCSD/C-PCM, Gaussian charge scheme 
  Tiago L. C. Gouveia    : GS-ROHF, GS-ROCIS                             
  Yang Guo               : DLPNO-NEVPT2, F12-NEVPT2, CIM, IAO-localization        
  Andreas Hansen         : Spin unrestricted coupled pair/coupled cluster methods 
  Ingolf Harden          : AUTO-CI MPn and infrastructure                
  Benjamin Helmich-Paris : MC-RPA, TRAH-(SCF,CASSCF), AVAS, COSX integrals, SCF dyn. polar., MC-PDFT, srDFT 
  Lee Huntington         : MR-EOM, pCC                                   
  Robert Izsak           : Overlap fitted RIJCOSX, COSX-SCS-MP3, EOM     
  Riya Kayal             : Wick's Theorem for AUTO-CI, AUTO-CI UHF-CCSDT 
  Emily Kempfer          : AUTO-CI RHF CISDT and CCSDT, approximate NEVPT4
  Christian Kollmar      : KDIIS, OOCD, Brueckner-CCSD(T), CCSD density, CASPT2, CASPT2-K, improved NEVPT2 
  Axel Koslowski         : Symmetry handling                             
  Simone Kossmann        : meta-GGA functionals, TD-DFT gradient, OOMP2, (MP2 Hessian; deprecated post 5.0) 
  Lucas Lang             : DCDCAS, Hyperfine gauge corrections, ICE-SOC+SSC
  Marvin Lechner         : AUTO-CI (C++ implementation), FIC-MRCC        
  Spencer Leger          : CASSCF response                               
  Dagmar Lenk            : GEPOL surface, SMD, ORCA-2-JSON               
  Dimitrios Liakos       : Extrapolation schemes; Compound Job, Property file
  Dimitrios Manganas     : Further ROCIS development; embedding schemes. LFT, Crystal Embedding 
  Dimitrios Pantazis     : SARC Basis sets                               
  Anastasios Papadopoulos: AUTO-CI, single reference methods and gradients 
  Taras Petrenko         : pre 6.0 DFT Hessian and TD-DFT gradient,  ECA, NRVS 
  Petra Pikulova         : Analytic Raman intensities                    
  Peter Pinski           : DLPNO-MP2, DLPNO-MP2 Gradient                 
  Shashank Vittal Rao    : ES-AILFT, MagRelax                            
  Christoph Reimann      : Effective Core Potentials                     
  Marius Retegan         : Local ZFS, SOC                                
  Christoph Riplinger    : Optimizer, TS searches, QM/MM, DLPNO-CCSD(T), (RO)-DLPNO pert. Triples 
  Michael Roemelt        : Original ROCIS implementation, recursive CI coupling coefficients
  Masaaki Saitow         : Open-shell DLPNO-CCSD energy and density      
  Barbara Sandhoefer     : DKH picture change effects                    
  Yorick L. A. Schmerwitz: GMF and freeze-and-release deltaSCF, NEB S-IDPP initial path                    
  Kantharuban Sivalingam : CASSCF convergence/infrastructure, NEVPT2, NEVPT3, NEVPT4(SD), FIC-MRCI and CEPA variants
  Bernardo de Souza      : ESD, SOC TD-DFT                               
  Georgi L. Stoychev     : AutoAux, RI-MP2 NMR, DLPNO-MP2 response, X2C  
  Van Anh Tran           : RI-MP2 g-tensors                              
  Willem Van den Heuvel  : Paramagnetic NMR                              
  Zikuan Wang            : NOTCH, Electric field optimization            
  Frank Wennmohs         : Technical directorship and infrastructure     
  Hang Xu                : AUTO-CI-Response properties                   
                                                                         
[FACCTs GmbH]                                                            
  Markus Bursch, Nicolas Foglia, Miquel Garcia-Rates, Ingolf Harden, Hagen Neugebauer, Anastasios Papadopoulos, 
  Christoph Riplinger, Bernardo de Souza, Georgi L. Stoychev                                                    
                                                                 
  APM, various basis sets, CI-OPT, improved COSX, DLPNO-Multilevel,           
  DOCKER, DRACO, updates on ESD, Fragmentator, GOAT, IRC, LR-CPCM, L-BFGS, MBIS, meta-GGA TD-DFT gradient, ML-optimized integration grids, 
  MM, NACMEs, nearIR, NEB, NEB-TS, NL-DFT gradient (VV10), 2- and 3-layer-ONIOM, interface openCOSMO-RS, QMMM,   
  Crystal-QMMM, RESP, rigid body optimization, SF, symmetry and pop. for TD-DFT, various functionals, SOLVATOR                                   
                                                                         
[Other institutions]                                                     
  V. Asgeirsson          : NEB                                           
  Christoph Bannwarth    : sTDA-DFT, sTD-DFT, PBEh-3c, B97-3c, D3        
  Giovanni Bistoni       : ETS/NOCV, ADLD/ADEX, COVALED                  
  Martin Brehm           : Molecular dynamics                            
  Ronald Cardenas        : ETS/NOCV                                      
  Martina Colucci        : COVALED                                       
  Sebastian Ehlert       : rSCAN, r2SCAN, r2SCAN-3c, D4, dhf basis sets  
  Marvin Friede          : D4 for Fr, Ra, Ac-Lr                          
  Lars Goerigk           : TD-DFT with DH, B97 family of functionals     
  Stefan Grimme          : VdW corrections, initial TS optimization, DFT functionals, gCP, sTDA/sTD-DF 
  Waldemar Hujo          : DFT-NL                                        
  H. Jonsson             : NEB                                           
  Holger Kruse           : gCP                                           
  Marcel Mueller         : wB97X-3c, vDZP basis set                      
  Hagen Neugebauer       : wr2SCAN, Native XTB                           
  Gianluca Regni         : ADLD/ADEX                                     
  Tobias Risthaus        : pre 6.0 range-separated hybrid DFT and stability analysis
  Lukas Wittmann         : regularized MP2, r2SCAN double-hybrids, wr2SCAN        
                                                                         
We gratefully acknowledge several colleagues who have allowed us to      
interface, adapt or use parts of their codes:                            
  Ed Valeev, F. Pavosevic, A. Kumar             : LibInt (2-el integral package), F12 methods 
  Garnet Chan, S. Sharma, J. Yang, R. Olivares  : DMRG                   
  Ulf Ekstrom                                   : XCFun DFT Library      
  Mihaly Kallay                                 : mrcc  (arbitrary order and MRCC methods)
  Frank Weinhold                                : gennbo (NPA and NBO analysis)           
  Simon Mueller                                 : openCOSMO-RS                            
  Christopher J. Cramer and Donald G. Truhlar   : smd solvation model                     
  S Lehtola, MJT Oliveira, MAL Marques          : LibXC Library                           
  Liviu Ungur et al                             : ANISO software                          


 Your calculation uses the libint2 library for the computation of 2-el integrals
 For citations please refer to: http://libint.valeyev.net

 Your ORCA version has been built with support for libXC version: 7.0.0
 For citations please refer to: https://libxc.gitlab.io

 This ORCA versions uses:
   CBLAS   interface :  Fast vector & matrix operations
   LAPACKE interface :  Fast linear algebra routines
   SCALAPACK package :  Parallel linear algebra routines
   Shared memory     :  Shared parallel matrices
   BLAS/LAPACK       :  OpenBLAS 0.3.29  USE64BITINT DYNAMIC_ARCH NO_AFFINITY Cooperlake SINGLE_THREADED
        Core in use  :  Cooperlake
   Copyright (c) 2011-2014, The OpenBLAS Project


  ***********************************
  * Starting time: Mon Jul 20 18:53:38 2026
  * Host name:     c1-33
  * Process ID:    3610919
  * Working dir.:  /cluster/projects/nn14654k/ylvaos/TPhP_bsse/orca/geomopt_wb97x-d4_def2svp_ph3
  ***********************************

Your calculation utilizes the atom-pairwise dispersion correction
based on EEQ partial charges (D4)


Warning: RI is on but no J-basis has been assigned. Assigning Def2/J (nothing to worry about!)
================================================================================

cite the ECPs for Ru [Def2-ECP] as follows:
Ce-Yb(ecp-28): M. Dolg, H. Stoll, H.Preuss, J. Chem. Phys., 1989, 90, 1730-1734.
Y-Cd(ecp-28), Hf-Hg(ecp-46): D. Andrae,U. Haeussermann, M. Dolg, H. Stoll, H. Preuss, Theor. Chim. Acta, 1990, 77, 123-141.
In-Sb(ecp-28), Tl-Bi(ecp-46): B. Metz, H. Stoll, M. Dolg, J. Chem. Phys., 2000, 113, 2563-2569.
Te-Xe(ecp-28), Po-Rn(ecp-46): K. A. Peterson, D. Figgen, E. Goll, H. Stoll, M. Dolg, J. Chem. Phys., 2003, 119, 11113-11123.
Rb(ecp-28), Cs(ecp-46): T. Leininger, A. Nicklass, W. Kuechle, H. Stoll, M. Dolg, A. Bergner, Chem. Phys. Lett., 1996, 255, 274-280.
Sr(ecp-28), Ba(ecp-46): M. Kaupp, P. V. Schleyer, H. Stoll and H. Preuss, J. Chem. Phys., 1991, 94, 1360-1366.
La(ecp-46): M. Dolg, H. Stoll, A. Savin, H. Preuss, Theor. Chim. Acta, 1989, 75, 173-194.
Lu(ecp-28): X. Cao, M. Dolg, J. Chem. Phys., 2001, 115, 7348-7355.

ECP parameters for Ru [Def2-ECP] have been obtained from:
TURBOMOLE (7.0.2)

----- Orbital basis set information -----
Your calculation utilizes the basis: def2-SVP
   F. Weigend and R. Ahlrichs, Phys. Chem. Chem. Phys. 7, 3297 (2005).

----- AuxJ basis set information -----
Your calculation utilizes the auxiliary basis: def2/J
   H-Rn: F. Weigend, Phys. Chem. Chem. Phys. 8, 1057 (2006).
   Fr-Lr: K. Eichkorn, F. Weigend, O. Treutler, R. Ahlrichs; Theor. Chem. Acc. 97, 119 (1997).

================================================================================
                                        WARNINGS
                       Please study these warnings very carefully!
================================================================================


WARNING: Geometry Optimization
  ===> : Switching off AutoStart
         For restart on a previous wavefunction, please use MOREAD

================================================================================
                                       INPUT FILE
================================================================================
NAME = 1b_ph3_opt.inp
|  1> ! wB97X-D4 def2-SVP TightSCF defgrid3 Opt
|  2> 
|  3> %pal nprocs 32 end
|  4> 
|  5> %loc
|  6>   LocMet NEWBOYS
|  7>   Occ true
|  8> end
|  9> 
| 10> *xyz 0 1
| 11>   Ru       -0.34719        1.08372        0.31842
| 12>    P        4.19037        1.13784       -0.77672
| 13>    P       -3.21887        1.75377        1.19835
| 14>    P        0.78066       -4.36144        0.09601
| 15>    H       -3.46879        1.83629        3.04436
| 16>    H       -0.05830        0.11280        1.83895
| 17>    H       -0.30473        1.87868        0.70721
| 18>    H       -0.00473        2.87868        0.30721
| 19>    H       -0.65572        0.20935       -1.25639
| 20>    H        3.86720        2.49902        0.45676
| 21>    H        5.59393        0.30660        0.12673
| 22>    H       -4.39319        3.12208        0.72335
| 23>    H       -4.35457        0.31512        0.85525
| 24>    H        2.83255       -0.01500       -0.23053
| 25>    H       -0.72907       -3.76150        1.01176
| 26>    H        0.84482       -6.08204        0.81341
| 27>    H        2.06442       -3.58869        1.20554
| 28> **                         ****END OF INPUT****
================================================================================

                       *****************************
                       * Geometry Optimization Run *
                       *****************************

Geometry optimization settings:
Update method            Update   .... BFGS
Choice of coordinates    CoordSys .... (2022) Redundant Internals
Initial Hessian          InHess   .... Almloef's Model
Max. no of cycles        MaxIter  .... 51

Convergence Tolerances:
Energy Change            TolE     ....  5.0000e-06 Eh
Max. Gradient            TolMAXG  ....  3.0000e-04 Eh/bohr
RMS Gradient             TolRMSG  ....  1.0000e-04 Eh/bohr
Max. Displacement        TolMAXD  ....  4.0000e-03 bohr
RMS Displacement         TolRMSD  ....  2.0000e-03 bohr
Strict Convergence                .... False

------------------------------------------------------------------------------
                        ORCA OPTIMIZATION COORDINATE SETUP
------------------------------------------------------------------------------

The optimization will be done in redundant internal coordinates (2022)
Making redundant internal coordinates   ...  (2022 redundants) done
Evaluating the initial hessian          ...  (Almloef) done
Evaluating the coordinates              ...  done
Calculating the B-matrix                .... done
Calculating the G-matrix                .... done
The number of degrees of freedom        ....  162

    -----------------------------------------------------------------
                    Redundant Internal Coordinates


    -----------------------------------------------------------------
         Definition                    Initial Value    Approx d2E/dq
    -----------------------------------------------------------------
      1. B(P   2,Ru  0)                  3.0773         0.043189   
      2. B(H   4,P   2)                  1.8647         0.070302   
      3. B(H   5,Ru  0)                  1.8271         0.243004   
      4. B(H   6,Ru  0)                  0.8860         7.710519   
      5. B(H   7,Ru  0)                  1.8274         0.242728   
      6. B(H   8,Ru  0)                  1.8275         0.242617   
      7. B(H   9,P   1)                  1.8651         0.070184   
      8. B(H  10,P   1)                  1.8647         0.070292   
      9. B(H  11,P   2)                  1.8647         0.070309   
     10. B(H  12,P   2)                  1.8647         0.070287   
     11. B(H  13,P   1)                  1.8631         0.070718   
     12. B(H  13,H   7)                  4.0881         0.010000   
     13. B(H  13,H   6)                  3.7826         0.010000   
     14. B(H  13,H   8)                  3.6429         0.010000   
     15. B(H  13,Ru  0)                  3.4087         0.010000   
     16. B(H  13,H   5)                  3.5575         0.010000   
     17. B(H  14,P   3)                  1.8649         0.070248   
     18. B(H  15,P   3)                  1.8653         0.070148   
     19. B(H  16,P   3)                  1.8645         0.070356   
     20. B(H  16,H   5)                  4.3137         0.010000   
     21. B(H  16,H  13)                  3.9273         0.010000   
     22. A(H   5,Ru  0,H   6)           95.9719         0.630913   
     23. A(H   5,Ru  0,H   7)          119.8320         0.336730   
     24. A(H   7,Ru  0,H   8)          119.7568         0.336641   
     25. A(P   2,Ru  0,H   5)           91.4493         0.285108   
     26. A(P   2,Ru  0,H   6)           73.9704         0.517879   
     27. A(H   6,Ru  0,H   8)          144.6427         0.630717   
     28. A(H   5,Ru  0,H  13)           79.3529         0.155519   
     29. A(H   6,Ru  0,H   7)           27.4190         0.630773   
     30. A(H   6,Ru  0,H  13)          108.3720         0.234474   
     31. A(H   7,Ru  0,H  13)           98.0944         0.155502   
     32. A(H   5,Ru  0,H   8)          119.3140         0.336704   
     33. A(P   2,Ru  0,H   7)           87.8658         0.285058   
     34. A(P   2,Ru  0,H  13)          170.6558         0.141645   
     35. A(P   2,Ru  0,H   8)          101.1301         0.285038   
     36. A(H   8,Ru  0,H  13)           82.2120         0.155495   
     37. A(H   9,P   1,H  10)           97.7777         0.209271   
     38. A(H   9,P   1,H  13)           97.5522         0.209435   
     39. A(H  10,P   1,H  13)           97.5096         0.209477   
     40. A(H  11,P   2,H  12)           97.7996         0.209317   
     41. A(H   4,P   2,H  11)           97.7763         0.209323   
     42. A(Ru  0,P   2,H  11)          132.4261         0.225656   
     43. A(Ru  0,P   2,H  12)          110.3495         0.225646   
     44. A(Ru  0,P   2,H   4)          114.6950         0.225653   
     45. A(H   4,P   2,H  12)           97.7393         0.209314   
     46. A(H  15,P   3,H  16)           97.4554         0.209281   
     47. A(H  14,P   3,H  15)           97.8012         0.209239   
     48. A(H  14,P   3,H  16)           97.5770         0.209320   
     49. A(Ru  0,H   5,H  16)          114.3051         0.097430   
     50. A(Ru  0,H   5,H  13)           70.3335         0.104808   
     51. A(H  13,H   5,H  16)           58.9283         0.089538   
     52. A(Ru  0,H   6,H  13)           58.7848         0.117672   
     53. A(Ru  0,H   7,H  13)           55.6393         0.099167   
     54. A(Ru  0,H   8,H  13)           67.9842         0.103720   
     55. A(H   6,H  13,H   8)           40.9559         0.089779   
     56. A(H   5,H  13,H   6)           33.2623         0.089836   
     57. A(Ru  0,H  13,H   6)           12.8431         0.092519   
     58. A(H   5,H  13,H   8)           51.9388         0.089939   
     59. A(Ru  0,H  13,H   8)           29.8038         0.092953   
     60. A(P   1,H  13,H  16)          144.3722         0.097111   
     61. A(H   7,H  13,H  16)          117.4035         0.089477   
     62. A(Ru  0,H  13,H   5)           30.3136         0.093244   
     63. A(H   5,H  13,H  16)           70.1866         0.089742   
     64. A(Ru  0,H  13,H  16)           92.9789         0.092120   
     65. A(P   1,H  13,H   7)           96.1069         0.096096   
     66. A(H   8,H  13,H  16)           88.3799         0.089691   
     67. A(H   6,H  13,H  16)          101.6940         0.089615   
     68. A(P   1,H  13,H   6)          111.5535         0.098148   
     69. A(P   1,H  13,H   8)          125.2542         0.099274   
     70. A(P   1,H  13,H   5)          137.7772         0.100030   
     71. A(Ru  0,H  13,P   1)          121.8443         0.135414   
     72. A(H   6,H  13,H   7)           15.7192         0.089538   
     73. A(H   7,H  13,H   8)           47.8464         0.089604   
     74. A(H   5,H  13,H   7)           48.2476         0.089649   
     75. A(Ru  0,H  13,H   7)           26.2662         0.091730   
     76. A(P   3,H  16,H   5)           95.9810         0.094875   
     77. A(P   3,H  16,H  13)          107.1102         0.097101   
     78. A(H   5,H  16,H  13)           50.8851         0.089395   
     79. D(H   4,P   2,Ru  0,H   7)    -90.2070         0.010000   
     80. D(H  11,P   2,Ru  0,H  13)    168.1500         0.010000   
     81. D(H  11,P   2,Ru  0,H   8)    -81.6662         0.010000   
     82. D(H   4,P   2,Ru  0,H   6)    -66.2015         0.010000   
     83. D(H  11,P   2,Ru  0,H   6)     62.2634         0.010000   
     84. D(H  11,P   2,Ru  0,H   5)    158.0610         0.010000   
     85. D(H  11,P   2,Ru  0,H   7)     38.2579         0.010000   
     86. D(H   4,P   2,Ru  0,H   5)     29.5961         0.010000   
     87. D(H  13,H   5,Ru  0,P   2)    178.3416         0.010000   
     88. D(H  16,H   5,Ru  0,P   2)    138.0524         0.010000   
     89. D(H  13,H   5,Ru  0,H   6)   -107.6253         0.010000   
     90. D(H  13,H   5,Ru  0,H   7)    -93.2878         0.010000   
     91. D(H  13,H   5,Ru  0,H   8)     74.7109         0.010000   
     92. D(H  16,H   5,Ru  0,H   7)   -133.5769         0.010000   
     93. D(H  16,H   5,Ru  0,H   6)   -147.9145         0.010000   
     94. D(H  13,H   6,Ru  0,H   5)     80.7348         4.665362   
     95. D(H  13,H   6,Ru  0,H   7)    -71.4579         4.665362   
     96. D(H  13,H   6,Ru  0,P   2)    170.5289         4.665362   
     97. D(H  13,H   6,Ru  0,H   8)   -102.7866         4.665362   
     98. D(H  13,H   7,Ru  0,H   8)    -85.6211         0.010000   
     99. D(H  13,H   7,Ru  0,H   6)    114.6572         0.010000   
    100. D(H  13,H   7,Ru  0,P   2)    172.7714         0.010000   
    101. D(H  13,H   7,Ru  0,H   5)     82.3241         0.010000   
    102. D(H  13,H   8,Ru  0,P   2)   -171.1520         0.010000   
    103. D(H  13,H   8,Ru  0,H   5)    -73.1025         0.010000   
    104. D(H  13,H   8,Ru  0,H   7)     94.9053         0.010000   
    105. D(H  13,H   8,Ru  0,H   6)    110.9150         0.010000   
    106. D(H   5,H  13,Ru  0,H   8)   -121.9057         0.010000   
    107. D(H   5,H  13,H   7,Ru  0)    -36.2875         0.010000   
    108. D(H   5,H  13,Ru  0,H   7)    118.9816         0.010000   
    109. D(H   5,H  13,Ru  0,H   6)     92.8150         0.010000   
    110. D(H   7,H  13,H   6,Ru  0)    133.9183         0.010000   
    111. D(H   8,H  13,H   6,Ru  0)     25.5879         0.010000   
    112. D(H   5,H  13,Ru  0,P   2)    -10.2643         0.010000   
    113. D(P   1,H  13,H   5,Ru  0)     70.7773         0.010000   
    114. D(H   7,H  13,H   5,H  16)    167.7834         0.010000   
    115. D(H   7,H  13,H   5,Ru  0)     31.2594         0.010000   
    116. D(H   6,H  13,H   5,H  16)    160.4017         0.010000   
    117. D(H   6,H  13,H   5,Ru  0)     23.8777         0.010000   
    118. D(H   8,H  13,H   5,H  16)    104.1192         0.010000   
    119. D(H   8,H  13,H   5,Ru  0)    -32.4048         0.010000   
    120. D(H   6,H  13,P   1,H   9)     38.5262         0.010000   
    121. D(H   6,H  13,P   1,H  10)    137.4530         0.010000   
    122. D(H   8,H  13,P   1,H   9)     82.8694         0.010000   
    123. D(H   8,H  13,P   1,H  10)   -178.2038         0.010000   
    124. D(Ru  0,H  13,H   5,H  16)    136.5240         0.010000   
    125. D(H   5,H  13,P   1,H   9)     13.0219         0.010000   
    126. D(Ru  0,H  13,P   1,H   9)     47.1494         0.010000   
    127. D(Ru  0,H  13,P   1,H  10)    146.0761         0.010000   
    128. D(H   6,H  13,Ru  0,H   7)     26.1666         0.010000   
    129. D(H   5,H  13,P   1,H  10)    111.9486         0.010000   
    130. D(H   6,H  13,Ru  0,H   5)    -92.8150         0.010000   
    131. D(H   6,H  13,Ru  0,P   2)   -103.0794         0.010000   
    132. D(H   5,H  13,H   6,Ru  0)    -66.8008         0.010000   
    133. D(H   8,H  13,Ru  0,H   7)   -119.1127         0.010000   
    134. D(P   1,H  13,H   8,Ru  0)    -93.7795         0.010000   
    135. D(P   1,H  13,H   6,Ru  0)    145.0403         0.010000   
    136. D(H  16,H  13,H   6,Ru  0)    -48.0014         0.010000   
    137. D(H   8,H  13,Ru  0,H   6)   -145.2793         0.010000   
    138. D(H   8,H  13,H   7,Ru  0)     35.8555         0.010000   
    139. D(H   6,H  13,H   7,Ru  0)    -21.2114         0.010000   
    140. D(P   1,H  13,H   7,Ru  0)    169.1836         0.010000   
    141. D(H   7,H  13,H   8,Ru  0)    -31.4348         0.010000   
    142. D(H   6,H  13,H   8,Ru  0)    -11.1368         0.010000   
    143. D(H   8,H  13,Ru  0,H   5)    121.9057         0.010000   
    144. D(H   5,H  13,H   8,Ru  0)     32.9700         0.010000   
    145. D(H  16,H  13,H   7,Ru  0)    -23.3290         0.010000   
    146. D(H  16,H  13,H   8,Ru  0)     98.8575         0.010000   
    147. D(H   8,H  13,Ru  0,P   2)    111.6413         0.010000   
    148. D(P   3,H  16,H  13,H   8)     33.8902         0.010000   
    149. D(P   3,H  16,H  13,H   5)     83.6969         0.010000   
    150. D(P   3,H  16,H  13,Ru  0)     63.3471         0.010000   
    151. D(H   5,H  16,H  13,P   1)    148.0528         0.010000   
    152. D(H   5,H  16,H  13,H   7)    -10.2428         0.010000   
    153. D(H   5,H  16,H  13,H   6)    -10.8285         0.010000   
    154. D(H   5,H  16,H  13,H   8)    -49.8068         0.010000   
    155. D(H   5,H  16,H  13,Ru  0)    -20.3499         0.010000   
    156. D(P   3,H  16,H   5,H  13)   -107.2224         0.010000   
    157. D(P   3,H  16,H   5,Ru  0)    -61.9120         0.010000   
    158. D(H  13,H  16,H   5,Ru  0)     45.3104         0.010000   
    159. D(H   5,H  16,P   3,H  15)   -138.4886         0.010000   
    160. D(H   5,H  16,P   3,H  14)    -39.5425         0.010000   
    161. D(H  13,H  16,P   3,H  15)    170.6688         0.010000   
    162. D(H  13,H  16,P   3,H  14)    -90.3850         0.010000   
    -----------------------------------------------------------------

Number of atoms                         .... 17
Number of degrees of freedom            .... 162


         *************************************************************
         *                GEOMETRY OPTIMIZATION CYCLE   1            *
         *************************************************************
---------------------------------
CARTESIAN COORDINATES (ANGSTROEM)
---------------------------------
  Ru    -0.347190    1.083720    0.318420
  P      4.190370    1.137840   -0.776720
  P     -3.218870    1.753770    1.198350
  P      0.780660   -4.361440    0.096010
  H     -3.468790    1.836290    3.044360
  H     -0.058300    0.112800    1.838950
  H     -0.304730    1.878680    0.707210
  H     -0.004730    2.878680    0.307210
  H     -0.655720    0.209350   -1.256390
  H      3.867200    2.499020    0.456760
  H      5.593930    0.306600    0.126730
  H     -4.393190    3.122080    0.723350
  H     -4.354570    0.315120    0.855250
  H      2.832550   -0.015000   -0.230530
  H     -0.729070   -3.761500    1.011760
  H      0.844820   -6.082040    0.813410
  H      2.064420   -3.588690    1.205540

----------------------------
CARTESIAN COORDINATES (A.U.)
----------------------------
  NO LB      ZA    FRAG     MASS         X           Y           Z
   0 Ru   16.0000*   0   101.070   -0.656094    2.047934    0.601727
   1 P    15.0000    0    30.974    7.918652    2.150206   -1.467788
   2 P    15.0000    0    30.974   -6.082783    3.314145    2.264553
   3 P    15.0000    0    30.974    1.475234   -8.241927    0.181433
   4 H     1.0000    0     1.008   -6.555063    3.470085    5.753007
   5 H     1.0000    0     1.008   -0.110171    0.213161    3.475112
   6 H     1.0000    0     1.008   -0.575856    3.550191    1.336433
   7 H     1.0000    0     1.008   -0.008938    5.439917    0.580543
   8 H     1.0000    0     1.008   -1.239131    0.395614   -2.374233
   9 H     1.0000    0     1.008    7.307949    4.722463    0.863151
  10 H     1.0000    0     1.008   10.570996    0.579390    0.239485
  11 H     1.0000    0     1.008   -8.301926    5.899876    1.366933
  12 H     1.0000    0     1.008   -8.228945    0.595490    1.616188
  13 H     1.0000    0     1.008    5.352744   -0.028346   -0.435639
  14 H     1.0000    0     1.008   -1.377743   -7.108205    1.911949
  15 H     1.0000    0     1.008    1.596478  -11.493390    1.537122
  16 H     1.0000    0     1.008    3.901188   -6.781641    2.278140
* core charge reduced due to ECP

--------------------------------
INTERNAL COORDINATES (ANGSTROEM)
--------------------------------
 Ru     0   0   0     0.000000000000     0.00000000     0.00000000
 P      1   0   0     4.668159310435     0.00000000     0.00000000
 P      1   2   0     3.077302362427   166.31976047     0.00000000
 P      1   2   3     5.565184566230    78.75386588   194.96019518
 H      3   1   2     1.864677579878   114.69502418   281.79455440
 H      1   2   4     1.827061728404    92.73438026    57.38512091
 H      1   2   6     0.885958191621    92.63438560    96.11164709
 H      7   1   2     1.118033988750   131.17920237    59.16435850
 H      1   2   8     1.827495607081    88.13699265   120.84829034
 H      2   1   7     1.865133440722    71.63262426    13.39173357
 H      2   1   7     1.864715129370   127.79268017    98.97383066
 H      3   1   7     1.864651366476   132.42608540    62.26340405
 H      3   1   7     1.864737494260   110.34954889   184.61218545
 H      2   1   7     1.863072390998    38.33779667   143.41511820
 H      4   1   2     1.864888934763    60.10216781   160.43257047
 H      4   1   2     1.865273069982   153.39877561   123.41677749
 H      4   1   2     1.864467516746    73.15613027    50.98194688

---------------------------
INTERNAL COORDINATES (A.U.)
---------------------------
 Ru     0   0   0     0.000000000000     0.00000000     0.00000000
 P      1   0   0     8.821542646237     0.00000000     0.00000000
 P      1   2   0     5.815258696256   166.31976047     0.00000000
 P      1   2   3    10.516674714899    78.75386588   194.96019518
 H      3   1   2     3.523729954033   114.69502418   281.79455440
 H      1   2   4     3.452646296453    92.73438026    57.38512091
 H      1   2   6     1.674218348267    92.63438560    96.11164709
 H      7   1   2     2.112778047153   131.17920237    59.16435850
 H      1   2   8     3.453466208327    88.13699265   120.84829034
 H      2   1   7     3.524591406183    71.63262426    13.39173357
 H      2   1   7     3.523800912288   127.79268017    98.97383066
 H      3   1   7     3.523680417881   132.42608540    62.26340405
 H      3   1   7     3.523843175806   110.34954889   184.61218545
 H      2   1   7     3.520696586657    38.33779667   143.41511820
 H      4   1   2     3.524129356881    60.10216781   160.43257047
 H      4   1   2     3.524855267244   153.39877561   123.41677749
 H      4   1   2     3.523332992242    73.15613027    50.98194688

---------------------
BASIS SET INFORMATION
---------------------
There are 3 groups of distinct atoms

 Group   1 Type Ru  : 7s6p5d1f contracted to 5s3p2d1f pattern {31111/411/41/1}
 Group   2 Type P   : 10s7p1d contracted to 4s3p1d pattern {5311/511/1}
 Group   3 Type H   : 4s1p contracted to 2s1p pattern {31/1}

Atom   0Ru   basis set group =>   1
Atom   1P    basis set group =>   2
Atom   2P    basis set group =>   2
Atom   3P    basis set group =>   2
Atom   4H    basis set group =>   3
Atom   5H    basis set group =>   3
Atom   6H    basis set group =>   3
Atom   7H    basis set group =>   3
Atom   8H    basis set group =>   3
Atom   9H    basis set group =>   3
Atom  10H    basis set group =>   3
Atom  11H    basis set group =>   3
Atom  12H    basis set group =>   3
Atom  13H    basis set group =>   3
Atom  14H    basis set group =>   3
Atom  15H    basis set group =>   3
Atom  16H    basis set group =>   3
---------------------------------
AUXILIARY/J BASIS SET INFORMATION
---------------------------------
There are 3 groups of distinct atoms

 Group   1 Type Ru  : 11s5p5d3f3g contracted to 8s5p5d2f3g pattern {41111111/11111/11111/21/111}
 Group   2 Type P   : 14s5p5d2f1g contracted to 8s4p3d1f1g pattern {71111111/2111/311/2/1}
 Group   3 Type H   : 5s2p1d contracted to 3s1p1d pattern {311/2/1}

Atom   0Ru   basis set group =>   1
Atom   1P    basis set group =>   2
Atom   2P    basis set group =>   2
Atom   3P    basis set group =>   2
Atom   4H    basis set group =>   3
Atom   5H    basis set group =>   3
Atom   6H    basis set group =>   3
Atom   7H    basis set group =>   3
Atom   8H    basis set group =>   3
Atom   9H    basis set group =>   3
Atom  10H    basis set group =>   3
Atom  11H    basis set group =>   3
Atom  12H    basis set group =>   3
Atom  13H    basis set group =>   3
Atom  14H    basis set group =>   3
Atom  15H    basis set group =>   3
Atom  16H    basis set group =>   3
-------------------------
ECP PARAMETER INFORMATION
-------------------------

 Group 1, Type Ru ECP Def2-ECP (replacing 28 core electrons, lmax=3)

Atom   0Ru   ECP group =>   1



           ************************************************************
           *        Program running with 32 parallel MPI-processes    *
           *              working on a common directory               *
           ************************************************************
------------------------------------------------------------------------------
                             ORCA STARTUP CALCULATIONS
                           -- RI-GTO INTEGRALS CHOSEN --
------------------------------------------------------------------------------
------------------------------------------------------------------------------
                   ___                                                        
                  /   \      - P O W E R E D   B Y -                         
                 /     \                                                     
                 |  |  |   _    _      __       _____    __    __             
                 |  |  |  | |  | |    /  \     |  _  \  |  |  /  |          
                  \  \/   | |  | |   /    \    | | | |  |  | /  /          
                 / \  \   | |__| |  /  /\  \   | |_| |  |  |/  /          
                |  |  |   |  __  | /  /__\  \  |    /   |      \           
                |  |  |   | |  | | |   __   |  |    \   |  |\   \          
                \     /   | |  | | |  |  |  |  | |\  \  |  | \   \       
                 \___/    |_|  |_| |__|  |__|  |_| \__\ |__|  \__/        
                                                                              
                      - O R C A' S   B I G   F R I E N D -                    
                                      &                                       
                       - I N T E G R A L  F E E D E R -                       
                                                                              
 v1 FN, 2020, v2 2021, v3 2022-2024                                           
------------------------------------------------------------------------------


----------------------
SHARK INTEGRAL PACKAGE
----------------------

Number of atoms                             ...     17
Number of basis functions                   ...    150
Number of shells                            ...     74
Maximum angular momentum                    ...      3
Integral batch strategy                     ... SHARK/LIBINT Hybrid
RI-J (if used) integral strategy            ... SPLIT-RIJ (Revised 2003 algorithm where possible)
Printlevel                                  ...      1
Contraction scheme used                     ... SEGMENTED contraction
Prescreening option                         ... SCHWARTZ
   Thresh                                   ... 2.500e-11
   Tcut                                     ... 2.500e-12
   Tpresel                                  ... 2.500e-12 
Coulomb Range Separation                    ... NOT USED
Exchange Range Separation                   ... Long Range
   Mu parameter                             ... 3.000e-01
   Scaling (regular/separated)              ... 1.670e-01 8.330e-01
Robust (split-)RI terms used:
  metric    (central integrals)             ... YES
  density   (r.h.s.  integrals)             ... YES
  potential (l.h.s.  integrals)             ... YES
Multipole approximations                    ... NOT USED
Finite Nucleus Model                        ... NOT USED
CABS basis                                  ... NOT available
Auxiliary Coulomb fitting basis             ... AVAILABLE
   # of basis functions in Aux-J            ...    385
   # of shells in Aux-J                     ...    139
   Maximum angular momentum in Aux-J        ...      4
Auxiliary J/K fitting basis                 ... NOT available
Auxiliary Correlation fitting basis         ... NOT available
Auxiliary 'external' fitting basis          ... NOT available

Checking pre-screening integrals            ... done (  0.0 sec) Dimension = 74
   => SHARK Basis and OBASIS are compatible. Storing Pre-screening
Shell pair information
Shell pair cut-off parameter TPreSel        ...   2.5e-12
Total number of shell pairs                 ...      2775
Shell pairs after pre-screening             ...      2072
Total number of primitive shell pairs       ...      9714
Primitive shell pairs kept                  ...      4982
          la=0 lb=0:    757 shell pairs
          la=1 lb=0:    767 shell pairs
          la=1 lb=1:    211 shell pairs
          la=2 lb=0:    175 shell pairs
          la=2 lb=1:     91 shell pairs
          la=2 lb=2:     12 shell pairs
          la=3 lb=0:     35 shell pairs
          la=3 lb=1:     18 shell pairs
          la=3 lb=2:      5 shell pairs
          la=3 lb=3:      1 shell pairs

Checking whether 4 symmetric matrices of dimension 150 fit in memory
:Max Core in MB      =   4096.00
 MB in use           =      5.91
 MB left             =   4090.09
 MB needed           =      0.35
 Data fit in memory  = YES
Calculating RI/J V-Matrix + Cholesky decomp.... done (  0.1 sec)
Calculating Nuclear repulsion               ... done (  0.0 sec) ENN=    268.881795071873 Eh

Diagonalization of the overlap matrix:
Smallest eigenvalue                        ... 2.917e-03
Time for diagonalization                   ...    0.002 sec
Threshold for overlap eigenvalues          ... 1.000e-07
Number of eigenvalues below threshold      ... 0
Time for construction of square roots      ...    0.002 sec
Total time needed                          ...    0.007 sec

-------------------
DFT GRID GENERATION
-------------------

General Integration Accuracy     IntAcc      ... 4.959
Radial Grid Type                 RadialGrid  ... OptM3 with GC (2021)
Angular Grid (max. ang.)         AngularGrid ... 6 (Lebedev-590)
Angular grid pruning method      GridPruning ... 4 (adaptive)
Weight generation scheme         WeightScheme... mBecke (2022)
Basis function cutoff            BFCut       ... 1.0000e-11
Integration weight cutoff        WCut        ... 1.0000e-14
Partially contracted basis set               ... off
Rotationally invariant grid construction     ... off
Angular grids for H and He will be reduced by one unit

Total number of grid points                  ...   189374
Total number of batches                      ...     2969
Average number of points per batch           ...       63
Average number of grid points per atom       ...    11140

--------------------
COSX GRID GENERATION
--------------------

GRIDX 1
-------
General Integration Accuracy     IntAcc      ... 4.020
Radial Grid Type                 RadialGrid  ... OptM3 with GC (2021)
Angular Grid (max. ang.)         AngularGrid ... 2 (Lebedev-110)
Angular grid pruning method      GridPruning ... 4 (adaptive)
Weight generation scheme         WeightScheme... mBecke (2022)
Basis function cutoff            BFCut       ... 1.0000e-11
Integration weight cutoff        WCut        ... 1.0000e-14
Partially contracted basis set               ... on
Rotationally invariant grid construction     ... off
Angular grids for H and He will be reduced by one unit

Total number of grid points                  ...    21709
Total number of batches                      ...      180
Average number of points per batch           ...      120
Average number of grid points per atom       ...     1277
UseSFitting                                  ... on

GRIDX 2
-------
General Integration Accuracy     IntAcc      ... 4.338
Radial Grid Type                 RadialGrid  ... OptM3 with GC (2021)
Angular Grid (max. ang.)         AngularGrid ... 3 (Lebedev-194)
Angular grid pruning method      GridPruning ... 4 (adaptive)
Weight generation scheme         WeightScheme... mBecke (2022)
Basis function cutoff            BFCut       ... 1.0000e-11
Integration weight cutoff        WCut        ... 1.0000e-14
Partially contracted basis set               ... on
Rotationally invariant grid construction     ... off
Angular grids for H and He will be reduced by one unit

Total number of grid points                  ...    42538
Total number of batches                      ...      340
Average number of points per batch           ...      125
Average number of grid points per atom       ...     2502
UseSFitting                                  ... on

GRIDX 3
-------
General Integration Accuracy     IntAcc      ... 4.871
Radial Grid Type                 RadialGrid  ... OptM3 with GC (2021)
Angular Grid (max. ang.)         AngularGrid ... 4 (Lebedev-302)
Angular grid pruning method      GridPruning ... 4 (adaptive)
Weight generation scheme         WeightScheme... mBecke (2022)
Basis function cutoff            BFCut       ... 1.0000e-11
Integration weight cutoff        WCut        ... 1.0000e-14
Partially contracted basis set               ... on
Rotationally invariant grid construction     ... off
Angular grids for H and He will be reduced by one unit

Total number of grid points                  ...    85875
Total number of batches                      ...      679
Average number of points per batch           ...      126
Average number of grid points per atom       ...     5051
UseSFitting                                  ... on
Grids setup in   3.0 sec
Initializing property integral containers    ... done (  0.0 sec)

SHARK setup successfully completed in   3.2 seconds

Maximum memory used throughout the entire STARTUP-calculation: 37.2 MB


           ************************************************************
           *        Program running with 32 parallel MPI-processes    *
           *              working on a common directory               *
           ************************************************************
-------------------------------------------------------------------------------
                                 ORCA GUESS
                   Start orbitals & Density for SCF / CASSCF
-------------------------------------------------------------------------------

------------
SCF SETTINGS
------------
Hamiltonian:
 Density Functional     Method          .... DFT(GTOs)
 Exchange Functional    Exchange        .... WB97X-V
 Correlation Functional Correlation     .... WB97X-V
 Gradients option       PostSCFGGA      .... off
 Hybrid DFT is turned on
   Fraction HF Exchange ScalHFX         ....  0.167000
   Scaling of DF-GGA-X  ScalDFX         ....  0.000000
   Scaling of DF-GGA-C  ScalDFC         ....  1.000000
   Scaling of DF-LDA-C  ScalLDAC        ....  1.000000
   Perturbative correction              ....  0.000000
 Long-range corrected/Screened/Range-Separated Hybrid DFT is turned on
   Amount of maximum screened exact exchange              ....  0.833000
   Range separation parameter mu (erf(mu*r12)/r12)        ....  0.300000
 RI-approximation to the Coulomb term is turned on
   Number of AuxJ basis functions       .... 385
   RIJ-COSX (HFX calculated with COS-X)).... on


General Settings:
 Integral files         IntName         .... 1b_ph3_opt
 Hartree-Fock type      HFTyp           .... RHF
 Total Charge           Charge          ....    0
 Multiplicity           Mult            ....    1
 Number of Electrons    NEL             ....   74
 Basis Dimension        Dim             ....  150
 Nuclear Repulsion      ENuc            ....    268.8817950719 Eh

Convergence Acceleration:
 AO-DIIS                CNVDIIS         .... on
   Start iteration      DIISMaxIt       ....    12
   Startup error        DIISStart       ....  0.200000
   # of expansion vecs  DIISMaxEq       ....     5
   Bias factor          DIISBfac        ....   1.050
   Max. coefficient     DIISMaxC        ....  10.000
 MO-DIIS                CNVKDIIS        .... off
 Trust-Rad. Augm. Hess. CNVTRAH         .... auto
   Auto Start mean grad. ratio tolernc. ....  1.125000
   Auto Start start iteration           ....    50
   Auto Start num. interpolation iter.  ....    10
   Max. Number of Micro iterations      ....    24
   Max. Number of Macro iterations      .... Maxiter - #DIIS iter
   Number of Davidson start vectors     ....     2
   Converg. threshold    (grad. norm)   ....   1.000e-05
   Grad. Scal. Fac. for Micro threshold ....   0.100
   Minimum threshold for Micro iter.    ....   1.000e-02
   NR start threshold (gradient norm)   ....   1.000e-04
   Initial trust radius                 ....   0.400
   Minimum AH scaling param. (alpha)    ....   1.000
   Maximum AH scaling param. (alpha)    .... 1000.000
   Quad. conv. algorithm                .... NR
   White noise on init. David. guess    .... on
   Maximum white noise                  ....   0.010
   Pseudo random numbers                .... off
   Inactive MOs                         .... canonical
   Orbital update algorithm             .... Taylor
   Preconditioner                       .... Diag
   Full preconditioner red. dimension   ....   250
 SOSCF                 CNVSOSCF           .... on
   Start iteration     SOSCFMaxIt         ....   150
   Startup grad/error  SOSCFStart         ....  0.003300
   Hessian update      SOSCFHessUp        .... L-BFGS
   Autom. constraints  SOSCFAutoConstrain .... off
 Level Shifting         CNVShift        .... on
   Level shift para.    LevelShift      ....    0.2500
   Turn off err/grad.   ShiftErr        ....    0.0010
 Zerner damping         CNVZerner       .... off
 Static damping         CNVDamp         .... on
   Fraction old density DampFac         ....    0.7000
   Max. Damping (<1)    DampMax         ....    0.9800
   Min. Damping (>=0)   DampMin         ....    0.0000
   Turn off err/grad.   DampErr         ....    0.1000

SCF Procedure:
 Maximum # iterations   MaxIter         ....   125
 SCF integral mode      SCFMode         .... Direct
   Integral package                     .... SHARK and LIBINT hybrid scheme
 Reset frequency        DirectResetFreq ....    20
 Integral Threshold     Thresh          ....  2.500e-11 Eh
 Primitive CutOff       TCut            ....  2.500e-12 Eh

Convergence Tolerance:
 Convergence Check Mode ConvCheckMode   .... Total+1el-Energy
 Convergence forced     ConvForced      .... 0
 Energy Change          TolE            ....  1.000e-08 Eh
 1-El. energy change                    ....  1.000e-05 Eh
 Orbital Gradient       TolG            ....  1.000e-05
 Orbital Rotation angle TolX            ....  1.000e-05
 DIIS Error             TolErr          ....  5.000e-07

------------------------------
INITIAL GUESS: MODEL POTENTIAL
------------------------------
Loading Hartree-Fock densities                     ... done
Atomic calculation to generate a density for atom 0 (Ru with ECP)
  Multiplicity assumed   :    5
  Atomic configuration   : 1s2 2s2 2p6 3s2 3p6 4s2 3d10 4p6 5s2 4d6 
  Number of open shells  : 1
  Command: /cluster/projects/nn14654k/ylvaos/orca_6_1_1_linux_x86-64_shared_openmpi418/orca 1b_ph3_opt_atom44.inp "" > 1b_ph3_opt_atom44.out
Returned from the atomic calculation with res=0
Calculating cut-offs                               ... done
Initializing the effective Hamiltonian             ... done
Setting up the integral package (SHARK)            ... done
Starting the Coulomb interaction                   ... done (   0.0 sec)
Making the grid                                    ... done (   0.1 sec)
Mapping shells                                     ... done
Starting the XC term evaluation                    ... done (   0.0 sec)
  promolecular density results
     # of electrons  =    101.994482555
     EX              =   -152.307897791
     EC              =     -5.622010706
     EX+EC           =   -157.929908497
Transforming the Hamiltonian                       ... done (   0.0 sec)
Diagonalizing the Hamiltonian                      ... done (   0.0 sec)
Back transforming the eigenvectors                 ... done (   0.0 sec)
Now organizing SCF variables                       ... done
                      ------------------
                      INITIAL GUESS DONE (   1.4 sec)
                      ------------------
             **** ENERGY FILE WAS UPDATED (1b_ph3_opt.en.tmp) ****
Finished Guess after   1.7 sec
Maximum memory used throughout the entire GUESS-calculation: 9.6 MB


           ************************************************************
           *        Program running with 32 parallel MPI-processes    *
           *              working on a common directory               *
           ************************************************************

-------------------------------------------------------------------------------------------
                                      ORCA LEAN-SCF
                              memory conserving SCF solver
-------------------------------------------------------------------------------------------

----------------------------------------D-I-I-S--------------------------------------------
Iteration    Energy (Eh)           Delta-E    RMSDP     MaxDP     DIISErr   Damp  Time(sec)
-------------------------------------------------------------------------------------------
               ***  Starting incremental Fock matrix formation  ***
    1    -1124.6929125568913150     0.00e+00  3.92e-02  1.79e-01  3.18e-01  0.700   0.4
Warning: op=0 Small HOMO/LUMO gap (   0.065) - skipping pre-diagonalization
         Will do a full diagonalization
    2    -1124.9350958490986159    -2.42e-01  2.82e-02  1.60e-01  2.53e-01  0.700   0.3
    3    -1125.0381684042306460    -1.03e-01  1.56e-02  7.44e-02  2.02e-01  0.700   0.3
                               ***Turning on AO-DIIS***
    4    -1125.1018054730870972    -6.36e-02  1.00e-02  4.90e-02  1.49e-01  0.700   0.3
    5    -1125.1527853973061610    -5.10e-02  7.62e-03  3.36e-02  1.05e-01  0.700   0.3
    6    -1125.1912940818067455    -3.85e-02  6.42e-03  3.24e-02  7.37e-02  0.700   0.3
    7    -1125.2204821638633803    -2.92e-02  1.88e-02  1.08e-01  5.20e-02  0.000   0.3
    8    -1125.3037410085057672    -8.33e-02  6.05e-03  4.95e-02  1.84e-02  0.000   0.3
    9    -1125.3104196904284890    -6.68e-03  8.33e-03  6.21e-02  1.68e-02  0.000   0.3
   10    -1125.3183854454919128    -7.97e-03  7.37e-03  6.42e-02  1.42e-02  0.000   0.3
   11    -1125.3244765955739695    -6.09e-03  1.09e-02  7.15e-02  1.20e-02  0.000   0.3
   12    -1125.3313511207645661    -6.87e-03  4.97e-03  3.83e-02  1.28e-02  0.000   0.3
   13    -1125.3342361127517961    -2.88e-03  7.36e-03  4.69e-02  9.38e-03  0.000   0.2
   14    -1125.3374495165346616    -3.21e-03  4.90e-03  2.95e-02  8.10e-03  0.000   0.2
   15    -1125.3392469224961587    -1.80e-03  4.83e-03  2.99e-02  6.24e-03  0.000   0.2
   16    -1125.3406421006109213    -1.40e-03  4.39e-03  2.77e-02  4.70e-03  0.000   0.2
   17    -1125.3415939272151718    -9.52e-04  4.01e-03  2.50e-02  3.44e-03  0.000   0.2
                              *** Initializing SOSCF ***
---------------------------------------S-O-S-C-F--------------------------------------
Iteration    Energy (Eh)           Delta-E    RMSDP     MaxDP     MaxGrad    Time(sec)
--------------------------------------------------------------------------------------
   18    -1125.3422042031070305    -6.10e-04  2.98e-03  1.95e-02  2.46e-03     0.3
               *** Restarting incremental Fock matrix formation ***
   19    -1125.3424879103947660    -2.84e-04  7.58e-04  4.36e-03  1.25e-03     0.3
   20    -1125.3425361339770916    -4.82e-05  1.55e-03  1.12e-02  9.32e-04     0.3
   21    -1125.3425961970103799    -6.01e-05  9.90e-04  8.76e-03  9.00e-04     0.3
   22    -1125.3426336351517421    -3.74e-05  1.37e-03  1.14e-02  4.37e-04     0.3
   23    -1125.3426622038887217    -2.86e-05  4.14e-04  2.67e-03  2.86e-04     0.3
   24    -1125.3426669476127699    -4.74e-06  1.99e-04  1.38e-03  1.29e-04     0.3
   25    -1125.3426683687457626    -1.42e-06  9.42e-05  4.74e-04  7.23e-05     0.3
   26    -1125.3426687290877908    -3.60e-07  5.62e-05  3.09e-04  3.96e-05     0.3
   27    -1125.3426688477375137    -1.19e-07  2.89e-05  1.33e-04  2.17e-05     0.3
   28    -1125.3426688792126242    -3.15e-08  2.00e-05  1.02e-04  1.49e-05     0.3
   29    -1125.3426688913964426    -1.22e-08  1.40e-05  8.74e-05  1.05e-05     0.3
   30    -1125.3426688984361590    -7.04e-09  1.25e-05  7.96e-05  6.92e-06     0.2
                 **** Energy Check signals convergence ****

               *****************************************************
               *                     SUCCESS                       *
               *           SCF CONVERGED AFTER  30 CYCLES          *
               *****************************************************

Recomputing exchange energy using gridx3       ... done (    0.357 sec)
Old exchange energy                            :    -23.006248664 Eh
New exchange energy                            :    -23.006200221 Eh
Exchange energy change after final integration :      0.000048443 Eh
Total energy after final integration           :  -1125.342620461 Eh
             **** ENERGY FILE WAS UPDATED (1b_ph3_opt.en.tmp) ****

----------------
TOTAL SCF ENERGY
----------------

Total Energy       :      -1125.34262046051481 Eh          -30622.12950 eV

Components:
Nuclear Repulsion  :        268.88179507187311 Eh            7316.64561 eV
Electronic Energy  :      -1394.22446397538965 Eh          -37938.77643 eV
One Electron Energy:      -2120.37075078246062 Eh          -57698.22145 eV
Two Electron Energy:        726.14628680707096 Eh           19759.44501 eV

Virial components:
Potential Energy   :      -2186.07768078752270 Eh          -59486.19791 eV
Kinetic Energy     :       1060.73506032700766 Eh           28864.06841 eV
Virial Ratio       :          2.06090829138201

DFT components:
N(Alpha)           :       36.999999652506 electrons
N(Beta)            :       36.999999652506 electrons
N(Total)           :       73.999999305012 electrons
E(X)               :      -57.453682580345 Eh       
E(C)               :       -3.340563034206 Eh       
E(XC)              :      -60.794245614551 Eh       

---------------
SCF CONVERGENCE
---------------

  Last Energy change         ...    7.0397e-09  Tolerance :   1.0000e-08
  Last MAX-Density change    ...    7.9633e-05  Tolerance :   1.0000e-07
  Last RMS-Density change    ...    1.2505e-05  Tolerance :   5.0000e-09
  Last DIIS Error            ...    2.4595e-03  Tolerance :   5.0000e-07
  Last Orbital Gradient      ...    6.9227e-06  Tolerance :   1.0000e-05
  Last Orbital Rotation      ...    9.1288e-05  Tolerance :   1.0000e-05


----------------
ORBITAL ENERGIES
----------------

  NO   OCC          E(Eh)            E(eV) 
   0   2.0000     -77.170205     -2099.9080 
   1   2.0000     -77.139454     -2099.0713 
   2   2.0000     -77.138114     -2099.0348 
   3   2.0000      -6.752492      -183.7447 
   4   2.0000      -6.723924      -182.9673 
   5   2.0000      -6.722634      -182.9322 
   6   2.0000      -4.910236      -133.6143 
   7   2.0000      -4.910196      -133.6132 
   8   2.0000      -4.908001      -133.5535 
   9   2.0000      -4.881267      -132.8260 
  10   2.0000      -4.881225      -132.8249 
  11   2.0000      -4.879980      -132.7910 
  12   2.0000      -4.879975      -132.7909 
  13   2.0000      -4.879075      -132.7664 
  14   2.0000      -4.877776      -132.7310 
  15   2.0000      -3.198501       -87.0357 
  16   2.0000      -2.116135       -57.5830 
  17   2.0000      -2.014573       -54.8193 
  18   2.0000      -1.992859       -54.2285 
  19   2.0000      -0.740404       -20.1474 
  20   2.0000      -0.714647       -19.4465 
  21   2.0000      -0.713655       -19.4195 
  22   2.0000      -0.632159       -17.2019 
  23   2.0000      -0.460190       -12.5224 
  24   2.0000      -0.457647       -12.4532 
  25   2.0000      -0.452105       -12.3024 
  26   2.0000      -0.439094       -11.9483 
  27   2.0000      -0.435171       -11.8416 
  28   2.0000      -0.435003       -11.8370 
  29   2.0000      -0.433801       -11.8043 
  30   2.0000      -0.429493       -11.6871 
  31   2.0000      -0.414982       -11.2922 
  32   2.0000      -0.394013       -10.7216 
  33   2.0000      -0.373598       -10.1661 
  34   2.0000      -0.372721       -10.1423 
  35   2.0000      -0.361512        -9.8373 
  36   2.0000      -0.314313        -8.5529 
  37   0.0000      -0.069136        -1.8813 
  38   0.0000      -0.050424        -1.3721 
  39   0.0000       0.004676         0.1272 
  40   0.0000       0.020856         0.5675 
  41   0.0000       0.021894         0.5958 
  42   0.0000       0.033719         0.9175 
  43   0.0000       0.036924         1.0048 
  44   0.0000       0.040849         1.1115 
  45   0.0000       0.041561         1.1309 
  46   0.0000       0.041996         1.1428 
  47   0.0000       0.047690         1.2977 
*Only the first 10 virtual orbitals were printed.

                    ********************************
                    * MULLIKEN POPULATION ANALYSIS *
                    ********************************

-----------------------
MULLIKEN ATOMIC CHARGES
-----------------------
   0 Ru:    0.302774
   1 P :    0.075777
   2 P :    0.053505
   3 P :    0.064386
   4 H :    0.010843
   5 H :   -0.117341
   6 H :   -0.151899
   7 H :   -0.098781
   8 H :   -0.066408
   9 H :   -0.015110
  10 H :   -0.023235
  11 H :    0.031148
  12 H :    0.012971
  13 H :   -0.017598
  14 H :   -0.020678
  15 H :   -0.022614
  16 H :   -0.017740
Sum of atomic charges:   -0.0000000

--------------------------------
MULLIKEN REDUCED ORBITAL CHARGES
--------------------------------
  0 Rus       :     2.503869  s :     2.503869
      pz      :     2.226416  p :     6.285385
      px      :     2.051756
      py      :     2.007213
      dz2     :     0.978662  d :     6.884177
      dxz     :     1.790174
      dyz     :     1.246210
      dx2y2   :     0.957915
      dxy     :     1.911216
      f0      :     0.003807  f :     0.023795
      f+1     :     0.000317
      f-1     :     0.001914
      f+2     :     0.009072
      f-2     :     0.000931
      f+3     :     0.001533
      f-3     :     0.006220

  1 P s       :     5.871798  s :     5.871798
      pz      :     3.226642  p :     8.994116
      px      :     2.874574
      py      :     2.892899
      dz2     :     0.003076  d :     0.058309
      dxz     :     0.012672
      dyz     :     0.019337
      dx2y2   :     0.004949
      dxy     :     0.018275

  2 P s       :     5.815838  s :     5.815838
      pz      :     2.950560  p :     9.069341
      px      :     3.207205
      py      :     2.911576
      dz2     :     0.025438  d :     0.061315
      dxz     :     0.005153
      dyz     :     0.002952
      dx2y2   :     0.001523
      dxy     :     0.026250

  3 P s       :     5.869716  s :     5.869716
      pz      :     3.244135  p :     9.008028
      px      :     2.880926
      py      :     2.882967
      dz2     :     0.001089  d :     0.057870
      dxz     :     0.020420
      dyz     :     0.013684
      dx2y2   :     0.015095
      dxy     :     0.007582

  4 H s       :     0.980363  s :     0.980363
      pz      :     0.007706  p :     0.008794
      px      :     0.000735
      py      :     0.000354

  5 H s       :     1.108445  s :     1.108445
      pz      :     0.004803  p :     0.008896
      px      :     0.002025
      py      :     0.002069

  6 H s       :     1.015703  s :     1.015703
      pz      :     0.026477  p :     0.136195
      px      :     0.055465
      py      :     0.054254

  7 H s       :     1.088031  s :     1.088031
      pz      :     0.001398  p :     0.010750
      px      :     0.002542
      py      :     0.006810

  8 H s       :     1.058711  s :     1.058711
      pz      :     0.004239  p :     0.007697
      px      :     0.001826
      py      :     0.001633

  9 H s       :     1.006475  s :     1.006475
      pz      :     0.003895  p :     0.008635
      px      :     0.000598
      py      :     0.004142

 10 H s       :     1.014628  s :     1.014628
      pz      :     0.002449  p :     0.008608
      px      :     0.004351
      py      :     0.001808

 11 H s       :     0.959881  s :     0.959881
      pz      :     0.000854  p :     0.008971
      px      :     0.003759
      py      :     0.004358

 12 H s       :     0.978236  s :     0.978236
      pz      :     0.000633  p :     0.008794
      px      :     0.003402
      py      :     0.004759

 13 H s       :     1.008976  s :     1.008976
      pz      :     0.001366  p :     0.008622
      px      :     0.004056
      py      :     0.003201

 14 H s       :     1.012096  s :     1.012096
      pz      :     0.002534  p :     0.008583
      px      :     0.004946
      py      :     0.001102

 15 H s       :     1.014026  s :     1.014026
      pz      :     0.001838  p :     0.008587
      px      :     0.000376
      py      :     0.006373

 16 H s       :     1.009102  s :     1.009102
      pz      :     0.003354  p :     0.008638
      px      :     0.003690
      py      :     0.001594



                     *******************************
                     * LOEWDIN POPULATION ANALYSIS *
                     *******************************

----------------------
LOEWDIN ATOMIC CHARGES
----------------------
   0 Ru:    0.182169
   1 P :    0.177447
   2 P :    0.344865
   3 P :    0.157549
   4 H :   -0.027892
   5 H :   -0.025259
   6 H :   -0.568823
   7 H :    0.068588
   8 H :    0.009387
   9 H :   -0.045368
  10 H :   -0.053687
  11 H :   -0.011930
  12 H :   -0.023764
  13 H :   -0.031184
  14 H :   -0.050617
  15 H :   -0.052661
  16 H :   -0.048820

-------------------------------
LOEWDIN REDUCED ORBITAL CHARGES
-------------------------------
  0 Rus       :     2.324814  s :     2.324814
      pz      :     2.314250  p :     6.434421
      px      :     2.103587
      py      :     2.016584
      dz2     :     0.992154  d :     7.026257
      dxz     :     1.777219
      dyz     :     1.346974
      dx2y2   :     1.092545
      dxy     :     1.817366
      f0      :     0.005814  f :     0.032339
      f+1     :     0.000396
      f-1     :     0.001755
      f+2     :     0.013938
      f-2     :     0.000483
      f+3     :     0.000527
      f-3     :     0.009426

  1 P s       :     5.741732  s :     5.741732
      pz      :     3.237289  p :     9.017222
      px      :     2.877410
      py      :     2.902523
      dz2     :     0.003378  d :     0.063599
      dxz     :     0.013482
      dyz     :     0.020831
      dx2y2   :     0.005637
      dxy     :     0.020271

  2 P s       :     5.608121  s :     5.608121
      pz      :     2.938368  p :     8.979999
      px      :     3.140760
      py      :     2.900871
      dz2     :     0.027906  d :     0.067015
      dxz     :     0.005487
      dyz     :     0.003222
      dx2y2   :     0.001659
      dxy     :     0.028740

  3 P s       :     5.742706  s :     5.742706
      pz      :     3.257447  p :     9.036704
      px      :     2.888702
      py      :     2.890556
      dz2     :     0.001268  d :     0.063041
      dxz     :     0.021918
      dyz     :     0.014610
      dx2y2   :     0.016731
      dxy     :     0.008513

  4 H s       :     1.010235  s :     1.010235
      pz      :     0.014894  p :     0.017658
      px      :     0.001873
      py      :     0.000891

  5 H s       :     1.008172  s :     1.008172
      pz      :     0.008393  p :     0.017087
      px      :     0.004639
      py      :     0.004055

  6 H s       :     0.835099  s :     0.835099
      pz      :     0.158962  p :     0.733724
      px      :     0.239055
      py      :     0.335708

  7 H s       :     0.904154  s :     0.904154
      pz      :     0.006230  p :     0.027258
      px      :     0.004907
      py      :     0.016121

  8 H s       :     0.971949  s :     0.971949
      pz      :     0.011170  p :     0.018664
      px      :     0.004431
      py      :     0.003063

  9 H s       :     1.028154  s :     1.028154
      pz      :     0.008008  p :     0.017214
      px      :     0.001263
      py      :     0.007943

 10 H s       :     1.036502  s :     1.036502
      pz      :     0.005209  p :     0.017185
      px      :     0.008351
      py      :     0.003625

 11 H s       :     0.994086  s :     0.994086
      pz      :     0.001897  p :     0.017844
      px      :     0.007421
      py      :     0.008526

 12 H s       :     1.006113  s :     1.006113
      pz      :     0.001417  p :     0.017652
      px      :     0.006962
      py      :     0.009272

 13 H s       :     1.013679  s :     1.013679
      pz      :     0.003109  p :     0.017504
      px      :     0.008236
      py      :     0.006159

 14 H s       :     1.033468  s :     1.033468
      pz      :     0.005362  p :     0.017149
      px      :     0.009568
      py      :     0.002219

 15 H s       :     1.035526  s :     1.035526
      pz      :     0.004022  p :     0.017135
      px      :     0.000872
      py      :     0.012241

 16 H s       :     1.031573  s :     1.031573
      pz      :     0.006960  p :     0.017247
      px      :     0.007144
      py      :     0.003143



                      *****************************
                      * MAYER POPULATION ANALYSIS *
                      *****************************

  NA   - Mulliken gross atomic population
  ZA   - Total nuclear charge
  QA   - Mulliken gross atomic charge
  VA   - Mayer's total valence
  BVA  - Mayer's bonded valence
  FA   - Mayer's free valence

  ATOM       NA         ZA         QA         VA         BVA        FA
  0 Ru    15.6972    16.0000     0.3028     3.7368     3.7368     0.0000
  1 P     14.9242    15.0000     0.0758     2.9268     2.9268     0.0000
  2 P     14.9465    15.0000     0.0535     3.1074     3.1074    -0.0000
  3 P     14.9356    15.0000     0.0644     2.9267     2.9267    -0.0000
  4 H      0.9892     1.0000     0.0108     0.9823     0.9823     0.0000
  5 H      1.1173     1.0000    -0.1173     0.9872     0.9872     0.0000
  6 H      1.1519     1.0000    -0.1519     1.1728     1.1728     0.0000
  7 H      1.0988     1.0000    -0.0988     1.0221     1.0221    -0.0000
  8 H      1.0664     1.0000    -0.0664     1.0121     1.0121     0.0000
  9 H      1.0151     1.0000    -0.0151     0.9830     0.9830    -0.0000
 10 H      1.0232     1.0000    -0.0232     0.9820     0.9820    -0.0000
 11 H      0.9689     1.0000     0.0311     0.9843     0.9843    -0.0000
 12 H      0.9870     1.0000     0.0130     0.9833     0.9833    -0.0000
 13 H      1.0176     1.0000    -0.0176     0.9836     0.9836    -0.0000
 14 H      1.0207     1.0000    -0.0207     0.9822     0.9822    -0.0000
 15 H      1.0226     1.0000    -0.0226     0.9823     0.9823    -0.0000
 16 H      1.0177     1.0000    -0.0177     0.9827     0.9827    -0.0000

  Mayer bond orders larger than 0.100000
B(  0-Ru,  2-P ) :   0.2161 B(  0-Ru,  5-H ) :   0.9727 B(  0-Ru,  6-H ) :   0.8655 
B(  0-Ru,  7-H ) :   0.6505 B(  0-Ru,  8-H ) :   0.9458 B(  1-P ,  9-H ) :   0.9713 
B(  1-P , 10-H ) :   0.9740 B(  1-P , 13-H ) :   0.9567 B(  2-P ,  4-H ) :   0.9566 
B(  2-P , 11-H ) :   0.9544 B(  2-P , 12-H ) :   0.9607 B(  3-P , 14-H ) :   0.9733 
B(  3-P , 15-H ) :   0.9744 B(  3-P , 16-H ) :   0.9751 B(  6-H ,  7-H ) :   0.3000 


-------
TIMINGS
-------

Total SCF time: 0 days 0 hours 0 min 9 sec 

Total time                  ....       9.272 sec
Sum of individual times     ....       8.929 sec  ( 96.3%)

SCF preparation             ....       0.251 sec  (  2.7%)
Fock matrix formation       ....       7.869 sec  ( 84.9%)
  Startup                   ....       0.039 sec  (  0.5% of F)
  Split-RI-J                ....       0.479 sec  (  6.1% of F)
  Chain of spheres X        ....       4.440 sec  ( 56.4% of F)
  XC integration            ....       2.050 sec  ( 26.0% of F)
    XC Preparation          ....       0.000 sec  (  0.0% of XC)
    Basis function eval.    ....       0.171 sec  (  8.4% of XC)
    Density eval.           ....       0.070 sec  (  3.4% of XC)
    XC-Functional eval.     ....       0.170 sec  (  8.3% of XC)
    XC-Potential eval.      ....       0.079 sec  (  3.8% of XC)
Diagonalization             ....       0.000 sec  (  0.0%)
Density matrix formation    ....       0.204 sec  (  2.2%)
Total Energy calculation    ....       0.090 sec  (  1.0%)
Population analysis         ....       0.028 sec  (  0.3%)
Orbital Transformation      ....       0.025 sec  (  0.3%)
Orbital Orthonormalization  ....       0.000 sec  (  0.0%)
DIIS solution               ....       0.284 sec  (  3.1%)
SOSCF solution              ....       0.177 sec  (  1.9%)
Finished LeanSCF after   9.3 sec

Maximum memory used throughout the entire LEANSCF-calculation: 11.4 MB
------------------------------------------------------------------------------
                           ORCA ORBITAL LOCALIZATION
------------------------------------------------------------------------------

Input orbitals are from                  ... 1b_ph3_opt.gbw
Output orbitals are to                   ... 1b_ph3_opt.loc
Max. number of iterations                ... 128
Localizations seeded randomly            ... on
Convergence tolerance                    ... 1.000e-06
Threshold for strong local MOs           ... 9.500e-01
Threshold for bond MOs                   ... 8.500e-01
Operator                                 ... 0
Orbital range for localization           ... 6 to 36
Localization criterion                   ... NEW-BOYS
Doing the dipole integrals               ... o.k.
Initial value of the localization sum :  1431.024479
ITERATION   0 : L= 1480.4262671425 DL=  4.94e+01 (AVERGE_DL)=    0.3259454022 
ITERATION   1 : L= 1489.4321846099 DL=  9.01e+00 (AVERGE_DL)=    0.1391673972 
ITERATION   2 : L= 1489.9113887084 DL=  4.79e-01 (AVERGE_DL)=    0.0321021253 
ITERATION   3 : L= 1489.9250864677 DL=  1.37e-02 (AVERGE_DL)=    0.0054274807 
ITERATION   4 : L= 1489.9276454336 DL=  2.56e-03 (AVERGE_DL)=    0.0023458799 
ITERATION   5 : L= 1489.9287034716 DL=  1.06e-03 (AVERGE_DL)=    0.0015084265 
ITERATION   6 : L= 1489.9292581553 DL=  5.55e-04 (AVERGE_DL)=    0.0010921851 
ITERATION   7 : L= 1489.9295633600 DL=  3.05e-04 (AVERGE_DL)=    0.0008101569 
ITERATION   8 : L= 1489.9297329124 DL=  1.70e-04 (AVERGE_DL)=    0.0006038451 
ITERATION   9 : L= 1489.9298272430 DL=  9.43e-05 (AVERGE_DL)=    0.0004504015 
ITERATION  10 : L= 1489.9298797052 DL=  5.25e-05 (AVERGE_DL)=    0.0003358898 
ITERATION  11 : L= 1489.9299088615 DL=  2.92e-05 (AVERGE_DL)=    0.0002504027 
ITERATION  12 : L= 1489.9299250580 DL=  1.62e-05 (AVERGE_DL)=    0.0001866313 
ITERATION  13 : L= 1489.9299340494 DL=  8.99e-06 (AVERGE_DL)=    0.0001390554 
ITERATION  14 : L= 1489.9299390388 DL=  4.99e-06 (AVERGE_DL)=    0.0001035849 
ITERATION  15 : L= 1489.9299418067 DL=  2.77e-06 (AVERGE_DL)=    0.0000771530 
ITERATION  16 : L= 1489.9299433420 DL=  1.54e-06 (AVERGE_DL)=    0.0000574602 
ITERATION  17 : L= 1489.9299441939 DL=  8.52e-07 (AVERGE_DL)=    0.0000428011 
LOCALIZATION SUM CONVERGED


--------------------------------------------------------------------------------
                    LOCALIZED MOLECULAR ORBITAL COMPOSITIONS
--------------------------------------------------------------------------------

The Mulliken populations for each LMO on each atom are computed
The LMO`s will be ordered according to atom index and type
  (A) Strongly localized MO`s have populations of >=0.950 on one atom
  (B) Two center bond orbitals have populations of >=0.850 on two atoms
  (C) Other MO`s are considered to be `delocalized`

FOUND  -  17 strongly local MO`s
       -  13 two center bond MO`s
       -   1 significantly delocalized MO`s

Rather strongly localized orbitals:
MO  22:   3P  -   0.993156
MO  21:   3P  -   1.000040
MO  20:   3P  -   1.000037
MO  19:   3P  -   0.999998
MO  18:   2P  -   1.000014
MO  17:   2P  -   1.000003
MO  16:   2P  -   0.999890
MO  15:   1P  -   0.992584
MO  14:   1P  -   1.000043
MO  13:   1P  -   0.999984
MO  12:   1P  -   1.000035
MO  11:   0Ru -   1.020025
MO  10:   0Ru -   1.014412
MO   9:   0Ru -   1.017640
MO   8:   0Ru -   1.013162
MO   7:   0Ru -   0.986386
MO   6:   0Ru -   0.977733
Bond-like localized orbitals:
MO  35:  16H  -   0.509617  and   3P  -   0.493495
MO  34:  15H  -   0.512149  and   3P  -   0.490732
MO  33:  14H  -   0.511240  and   3P  -   0.490974
MO  32:  13H  -   0.509959  and   1P  -   0.485836
MO  31:  12H  -   0.492683  and   2P  -   0.510471
MO  30:  11H  -   0.481899  and   2P  -   0.518761
MO  29:  10H  -   0.512445  and   1P  -   0.490574
MO  28:   9H  -   0.508432  and   1P  -   0.493274
MO  27:   8H  -   0.524438  and   0Ru -   0.477154
MO  26:   6H  -   0.482542  and   0Ru -   0.525578
MO  25:   5H  -   0.559452  and   0Ru -   0.443130
MO  24:   4H  -   0.493593  and   2P  -   0.509937
MO  23:   2P  -   0.932203  and   0Ru -   0.054192
More delocalized orbitals:
MO  36:  0Ru- 0.304 6H - 0.145 7H - 0.544
Localized MO's were stored in: 1b_ph3_opt.loc


-------------------------------------------------------------------------------
                          DFT DISPERSION CORRECTION                            
                                                                               
                                DFTD4 V3.4.0                                   
-------------------------------------------------------------------------------
The WB97X-D3BJ functional is recognized
Active option DFTDOPT                   ...         5   

-------------------------   ----------------
Dispersion correction           -0.025822546
-------------------------   ----------------


-------------------------   --------------------
FINAL SINGLE POINT ENERGY     -1125.368443006784
-------------------------   --------------------



           ************************************************************
           *        Program running with 32 parallel MPI-processes    *
           *              working on a common directory               *
           ************************************************************
------------------------------------------------------------------------------
                         ORCA SCF GRADIENT CALCULATION
------------------------------------------------------------------------------

Nuc. rep. gradient        (SHARK) ... done (  0.0 sec)
HCore & Overlap gradient  (SHARK) ... done (  0.0 sec)
ECP gradient              (SHARK) ... done (  0.2 sec)
Split-RIJ-J gradient      (SHARK) ... done (  0.1 sec)
COSX-gradient                     ... done (  0.6 sec)
XC gradient                       ... done (  0.1 sec)
Dispersion correction             ... done (  0.0 sec)

-------------------
DISPERSION GRADIENT
-------------------

   1   Ru  :    0.002094925   -0.004289271   -0.002746282
   2   P   :   -0.000269991   -0.000802680    0.001972034
   3   P   :   -0.005736890    0.000624724    0.001909406
   4   P   :   -0.000132940   -0.000378804    0.001891713
   5   H   :    0.000120525   -0.000044838   -0.001387884
   6   H   :    0.000002466    0.000429416   -0.000583417
   7   H   :    0.000586991    0.003900612    0.002016201
   8   H   :   -0.000009725   -0.000693345   -0.000080677
   9   H   :    0.000151721    0.000300221    0.000467834
  10   H   :    0.000344821   -0.000933088   -0.000910939
  11   H   :   -0.000836144    0.000511029   -0.000576563
  12   H   :    0.000822261   -0.000973126    0.000339007
  13   H   :    0.000815565    0.001146180    0.000283556
  14   H   :    0.001893759    0.001204226   -0.000719325
  15   H   :    0.001031410   -0.000479199   -0.000653282
  16   H   :   -0.000036333    0.001043893   -0.000465287
  17   H   :   -0.000842421   -0.000565950   -0.000756094

Difference to translation invariance:
           :    0.0000000000    0.0000000000    0.0000000000

Difference to rotation invariance:
           :    0.0000000000    0.0000000000    0.0000000000

Norm of the Dispersion gradient    ...    0.0107529745
RMS gradient                       ...    0.0015057176
[...]
   134. D(P   3,P   2,Ru  0,H   7)    169.06 -0.000098   -0.02    169.04   
   135. D(H   4,P   2,Ru  0,H   7)    -78.80  0.000012    0.12    -78.67   
   136. D(H   4,P   2,Ru  0,H   8)   -162.25  0.000408   -0.37   -162.62   
   137. D(P   3,P   2,Ru  0,H   6)   -115.34 -0.000151   -0.14   -115.48   
   138. D(H   4,P   2,Ru  0,P   3)    112.14  0.000110    0.14    112.28   
   139. D(H  14,P   3,Ru  0,H   6)     28.61 -0.000271   -0.11     28.50   
   140. D(Ru  0,P   3,P   2,H  11)     83.86  0.000132   -0.29     83.57   
   141. D(H  14,P   3,Ru  0,H   5)     32.41 -0.000120   -0.36     32.05   
   142. D(H  14,P   3,P   2,Ru  0)    128.09  0.000151   -0.33    127.76   
   143. D(P   2,P   3,Ru  0,H   9)    169.90 -0.000290    0.53    170.43   
   144. D(H  14,P   3,P   2,H  12)    -61.07 -0.000129   -0.19    -61.26   
   145. D(H  14,P   3,Ru  0,H  13)    114.99 -0.000001   -0.78    114.20   
   146. D(H  14,P   3,Ru  0,H   7)   -123.25  0.000032   -0.00   -123.26   
   147. D(Ru  0,P   3,P   2,H   4)   -100.89 -0.000834    0.33   -100.56   
   148. D(H  14,P   3,Ru  0,H   8)   -148.95 -0.000013   -0.42   -149.37   
   149. D(P   2,P   3,Ru  0,H   5)    100.42  0.000046    0.15    100.56   
   150. D(P   2,P   3,Ru  0,H  13)   -177.01  0.000164   -0.27   -177.28   
   151. D(P   2,P   3,Ru  0,H   7)    -55.25  0.000197    0.51    -54.74   
   152. D(H  14,P   3,Ru  0,P   2)    -68.01 -0.000166   -0.51    -68.52   
   153. D(H  14,P   3,P   2,H  11)   -148.06  0.000283   -0.61   -148.67   
   154. D(Ru  0,P   3,P   2,H  12)    170.85 -0.000280    0.14    170.98   
   155. D(P   2,P   3,Ru  0,H   6)     96.61 -0.000105    0.41     97.02   
   156. D(P   2,P   3,Ru  0,H   8)    -80.94  0.000153    0.09    -80.85   
   157. D(H  14,P   3,P   2,H   4)     27.20 -0.000684   -0.00     27.20   
   158. D(H  15,P   3,P   2,Ru  0)   -134.83  0.001076   -0.92   -135.76   
   159. D(H  15,P   3,P   2,H   4)    124.28  0.000242   -0.60    123.68   
   160. D(H   9,H   5,Ru  0,P   2)   -138.80  0.000053   -0.21   -139.01   
   161. D(H  13,H   5,Ru  0,H   6)   -105.80 -0.000111    0.42   -105.38   
   162. D(H   9,H   5,Ru  0,H  13)     46.44  0.000311   -0.54     45.90   
   163. D(H   9,H   5,Ru  0,H   7)    -57.85  0.000230   -0.66    -58.51   
   164. D(H  13,H   5,Ru  0,P   3)     81.28  0.000030    0.03     81.31   
   165. D(H   9,H   5,Ru  0,P   3)    127.72  0.000341   -0.51    127.21   
   166. D(H  13,H   5,Ru  0,H   9)    -46.44 -0.000311    0.54    -45.90   
   167. D(H  13,H   5,Ru  0,H   7)   -104.29 -0.000081   -0.12   -104.41   
   168. D(H  13,H   5,Ru  0,P   2)    174.76 -0.000258    0.33    175.09   
   169. D(H   9,H   5,Ru  0,H   6)    -59.36  0.000200   -0.12    -59.48   
   170. D(H   9,H   6,Ru  0,H  13)     38.13 -0.000010   -0.06     38.06   
   171. D(H   9,H   6,Ru  0,P   3)    118.27  0.000088   -0.37    117.90   
   172. D(H   9,H   6,Ru  0,H   8)    -68.46 -0.000483    0.07    -68.39   
   173. D(H   9,H   6,Ru  0,H   7)    -68.02 -0.000049   -0.47    -68.49   
   174. D(H   9,H   6,Ru  0,P   2)   -145.14 -0.000132    0.06   -145.09   
   175. D(H   9,H   6,Ru  0,H   5)    110.49 -0.000075    0.02    110.51   
   176. D(Ru  0,H   7,P   1,H  10)    -24.81 -0.000791    1.88    -22.93   
   177. D(H  13,H   7,Ru  0,H   6)     86.83  0.000254   -0.69     86.14   
   178. D(H  13,H   7,Ru  0,H   5)     86.07  0.000224   -0.38     85.70   
   179. D(Ru  0,H   7,P   1,H  13)    -10.28 -0.000028   -0.64    -10.92   
   180. D(H  13,H   7,Ru  0,P   3)   -119.25  0.000009   -0.75   -119.99   
   181. D(H  13,H   7,Ru  0,P   2)   -175.99  0.000220   -0.32   -176.32   
   182. D(H   9,H   7,Ru  0,H  13)    -20.78 -0.000527    0.81    -19.97   
   183. D(H   9,H   7,P   1,H  13)     94.95 -0.000210   -0.19     94.76   
   184. D(H   9,H   7,Ru  0,H   6)     66.05 -0.000273    0.12     66.18   
   185. D(Ru  0,H   7,P   1,H   9)   -105.23  0.000182   -0.44   -105.68   
   186. D(H   9,H   7,Ru  0,P   2)    163.23 -0.000307    0.49    163.72   
   187. D(H   9,H   7,Ru  0,P   3)   -140.02 -0.000518    0.07   -139.96   
   188. D(H   9,H   7,Ru  0,H   5)     65.29 -0.000302    0.44     65.73   
   189. D(H   9,H   7,Ru  0,H   8)   -114.11 -0.000436    0.47   -113.64   
   190. D(H  13,H   7,P   1,H  10)    -14.52 -0.000763    2.51    -12.01   
   191. D(H  13,H   7,P   1,H   9)    -94.95  0.000210    0.19    -94.76   
   192. D(H   9,H   7,P   1,H  10)     80.43 -0.000973    2.32     82.75   
   193. D(H  13,H   8,Ru  0,H   7)    105.29  0.000073    0.23    105.52   
   194. D(H  13,H   8,Ru  0,H   9)     45.29  0.000312   -0.51     44.78   
   195. D(H  13,H   8,Ru  0,H   6)    105.72  0.000500   -0.34    105.38   
   196. D(H  13,H   8,Ru  0,P   3)    -80.39 -0.000008    0.06    -80.34   
   197. D(H  13,H   8,Ru  0,P   2)   -175.20  0.000232   -0.30   -175.49   
   198. D(Ru  0,H   9,H   7,P   1)    -68.41 -0.000042    0.63    -67.78   
   199. D(Ru  0,H   9,H   7,H  13)    -17.25 -0.000342    0.84    -16.41   
   200. D(H   6,H   9,H   7,P   1)   -122.08  0.000100    0.42   -121.66   
   201. D(H   6,H   9,H   7,Ru  0)    -53.66  0.000142   -0.21    -53.88   
   202. D(P   1,H   9,H   7,H  13)     51.17 -0.000299    0.21     51.37   
   203. D(P   1,H   9,H   7,Ru  0)     68.41  0.000042   -0.63     67.78   
   204. D(H   5,H   9,H   6,Ru  0)    -73.88  0.000083   -0.07    -73.96   
   205. D(H   7,H   9,H   6,Ru  0)     48.88  0.000048    0.03     48.91   
   206. D(P   1,H   9,H   6,Ru  0)      0.07  0.000240   -0.22     -0.14   
   207. D(Ru  0,H   9,H   5,H  13)     49.60  0.000082   -0.16     49.45   
   208. D(H   6,H   9,H   5,Ru  0)     82.62 -0.000438    0.10     82.72   
   209. D(H   7,H   9,H   5,H  13)     85.56 -0.000216    0.06     85.62   
   210. D(H   7,H   9,H   5,Ru  0)     35.96 -0.000298    0.22     36.18   
   211. D(P   1,H   9,H   5,Ru  0)    -22.93 -0.000146    0.37    -22.56   
   212. D(Ru  0,H   9,P   1,H   7)     36.64  0.000136   -0.01     36.63   
   213. D(Ru  0,H   9,P   1,H  13)    -42.62 -0.000185    0.73    -41.89   
   214. D(Ru  0,H   9,P   1,H  10)   -117.94  0.000006    0.43   -117.51   
   215. D(H   6,H   9,P   1,H   7)     36.59 -0.000028    0.01     36.60   
   216. D(H   6,H   9,P   1,H  10)   -117.99 -0.000158    0.45   -117.54   
   217. D(P   1,H   9,H   5,H  13)     26.67 -0.000064    0.21     26.88   
   218. D(H   6,H   9,P   1,H  13)    -42.67 -0.000349    0.75    -41.92   
   219. D(H   7,H   9,P   1,H  13)    -79.26 -0.000321    0.74    -78.52   
   220. D(H   7,H   9,P   1,H  10)   -154.58 -0.000130    0.44   -154.14   
   221. D(H   6,H   9,H   5,H  13)    132.22 -0.000355   -0.05    132.17   
   222. D(H   7,H   9,Ru  0,H   6)    -87.61 -0.000039    0.28    -87.33   
   223. D(H   7,H   9,Ru  0,H   5)   -115.76 -0.000615    0.52   -115.24   
   224. D(P   1,H   9,Ru  0,H   8)    -20.68 -0.000267    0.53    -20.16   
   225. D(P   1,H   9,Ru  0,H   5)    151.94 -0.000286    0.33    152.27   
   226. D(P   1,H   9,Ru  0,P   3)     77.48  0.000298   -0.21     77.26   
   227. D(P   1,H   9,Ru  0,P   2)   -118.20 -0.000149    0.56   -117.64   
   228. D(P   1,H   9,Ru  0,H   7)    -92.30  0.000329   -0.19    -92.49   
   229. D(H   6,H   9,H   7,H  13)    -70.91 -0.000200    0.62    -70.29   
   230. D(H   7,H   9,Ru  0,P   2)    -25.90 -0.000478    0.75    -25.15   
   231. D(P   1,H   9,Ru  0,H  13)     59.34 -0.000242    0.78     60.12   
   232. D(P   1,H   9,Ru  0,H   6)   -179.91  0.000290    0.10   -179.82   
   233. D(H   7,H   9,Ru  0,P   3)    169.77 -0.000031   -0.02    169.75   
   234. D(H   7,H  13,P   1,H   9)     85.15 -0.000049    0.34     85.49   
   235. D(H   8,H  13,P   1,H   7)     46.84 -0.000094    0.51     47.34   
   236. D(H   8,H  13,P   1,H  10)   -139.64 -0.000421    1.30   -138.34   
   237. D(Ru  0,H  13,P   1,H   7)      9.35  0.000015    0.43      9.78   
   238. D(Ru  0,H  13,P   1,H  10)   -177.13 -0.000312    1.22   -175.90   
   239. D(Ru  0,H  13,P   1,H   9)     94.50 -0.000034    0.77     95.28   
   240. D(H   8,H  13,Ru  0,H   7)    -83.10  0.000410   -0.46    -83.56   
   241. D(H   8,H  13,Ru  0,H   6)   -159.54  0.000405   -0.33   -159.87   
   242. D(H   8,H  13,Ru  0,H   5)    172.43 -0.000142   -0.16    172.27   
   243. D(H   8,H  13,Ru  0,P   3)     85.36  0.000274   -0.47     84.90   
   244. D(H   8,H  13,Ru  0,P   2)     54.54  0.000012    1.69     56.23   
   245. D(H   8,H  13,Ru  0,H   9)   -109.60 -0.000133    0.25   -109.35   
   246. D(P   1,H  13,Ru  0,H   9)    -41.10 -0.000547    0.05    -41.05   
   247. D(P   1,H  13,Ru  0,H   8)     68.50 -0.000414   -0.20     68.30   
   248. D(P   1,H  13,Ru  0,H   7)    -14.60 -0.000004   -0.67    -15.27   
   249. D(H   8,H  13,P   1,H   9)    131.99 -0.000142    0.85    132.84   
   250. D(P   1,H  13,Ru  0,H   6)    -91.04 -0.000009   -0.53    -91.57   
   251. D(P   1,H  13,Ru  0,H   5)   -119.06 -0.000556   -0.36   -119.43   
   252. D(P   1,H  13,Ru  0,P   3)    153.87 -0.000141   -0.67    153.20   
   253. D(H   7,H  13,P   1,H  10)    173.52 -0.000327    0.79    174.31   
   254. D(P   1,H  13,Ru  0,P   2)    123.04 -0.000403    1.49    124.53   
   255. D(H  16,H  13,H   8,Ru  0)     95.73 -0.000281    0.74     96.47   
   256. D(P   3,H  13,H   8,Ru  0)     72.37 -0.000078    0.45     72.82   
   257. D(H   7,H  13,H   8,Ru  0)    -50.68 -0.000135    0.15    -50.53   
   258. D(H   5,H  13,H   7,H   9)     97.50 -0.000220    0.68     98.17   
   259. D(H   5,H  13,H   7,Ru  0)    -54.23  0.000414   -0.43    -54.67   
   260. D(H   8,H  13,H   7,P   1)   -104.55  0.000284    0.63   -103.92   
   261. D(H   8,H  13,H   7,Ru  0)     59.50  0.000227   -0.32     59.18   
   262. D(Ru  0,H  13,H   7,P   1)   -164.05  0.000057    0.95   -163.10   
   263. D(Ru  0,H  13,H   7,H   9)    151.73 -0.000634    1.11    152.84   
   264. D(P   1,H  13,H   7,Ru  0)    164.05 -0.000057   -0.95    163.10   
   265. D(H  16,H  13,H   5,H   9)    165.73 -0.000081   -0.08    165.65   
   266. D(H  16,H  13,H   5,Ru  0)    -88.87 -0.000301    0.40    -88.48   
   267. D(P   3,H  13,H   5,H   9)   -173.04 -0.000138   -0.26   -173.31   
   268. D(P   3,H  13,H   5,Ru  0)    -67.64 -0.000358    0.21    -67.43   
   269. D(H   7,H  13,H   5,H   9)    -67.03  0.000005   -0.45    -67.48   
   270. D(H   7,H  13,H   5,Ru  0)     38.37 -0.000216    0.02     38.39   
   271. D(Ru  0,H  13,H   5,H   9)   -105.40  0.000220   -0.47   -105.87   
   272. D(P   1,H  13,H   5,H   9)    -27.58 -0.000514   -0.51    -28.09   
   273. D(P   1,H  13,H   5,Ru  0)     77.82 -0.000735   -0.04     77.78   
   274. D(H   8,H  13,P   3,P   2)    -43.75  0.000251   -0.21    -43.97   
   275. D(H   8,H  13,P   3,Ru  0)    -45.78  0.000129    0.00    -45.78   
   276. D(Ru  0,H  13,P   3,H  16)    172.61  0.000123   -0.73    171.88   
   277. D(P   1,H  13,H   7,H   9)    -44.22 -0.000691    0.16    -44.06   
   278. D(Ru  0,H  13,P   3,H  15)     79.50 -0.000503   -0.48     79.02   
   279. D(Ru  0,H  13,P   3,H  14)    -96.21 -0.000245   -0.25    -96.46   
   280. D(Ru  0,H  13,P   3,P   2)      2.03  0.000122   -0.21      1.81   
   281. D(H   8,H  13,H   7,H   9)   -148.77 -0.000407    0.79   -147.98   
   282. D(P   1,H  13,P   3,H  16)    117.69  0.000226   -0.88    116.81   
   283. D(P   1,H  13,P   3,H  15)     24.58 -0.000400   -0.62     23.96   
   284. D(P   1,H  13,P   3,H  14)   -151.13 -0.000142   -0.39   -151.53   
   285. D(P   1,H  13,H   8,Ru  0)   -112.50 -0.000132   -0.51   -113.02   
   286. D(P   1,H  13,P   3,P   2)    -52.90  0.000224   -0.36    -53.25   
   287. D(P   1,H  13,P   3,Ru  0)    -54.92  0.000102   -0.14    -55.07   
   288. D(H   5,H  13,P   1,H  10)    133.79  0.000028    1.11    134.91   
   289. D(H   5,H  13,P   1,H   9)     45.42  0.000306    0.67     46.09   
   290. D(P   3,H  16,H  13,H   5)     43.32  0.000009   -0.28     43.05   
   291. D(P   3,H  16,H  13,H   7)    -16.92  0.000077   -0.84    -17.77   
   292. D(P   3,H  16,H  13,H   8)    -46.68  0.000104   -0.52    -47.21   
   293. D(P   3,H  16,H  13,Ru  0)     -6.38  0.000099   -0.60     -6.98   
   294. D(H  13,H  16,P   3,H  15)    131.00 -0.001396    1.08    132.08   
   295. D(H  13,H  16,P   3,H  14)   -130.37 -0.000230    0.47   -129.90   
   296. D(H  13,H  16,P   3,P   2)     29.29 -0.000045    2.87     32.15   
   297. D(H  13,H  16,P   3,Ru  0)      5.45 -0.000120    0.57      6.02   
   298. D(P   3,H  16,P   1,H   7)     -1.15  0.000168   -0.26     -1.41   
   299. D(P   3,H  16,P   1,H  10)    164.39 -0.000123    0.26    164.64   
   300. D(P   3,H  16,P   1,H   9)     83.63  0.000103    0.23     83.86   
    ----------------------------------------------------------------------------

Geometry step timings:
Preparation and reading OPT file:      0.000 s ( 1.370 %)
Internal coordinates            :      0.000 s ( 0.378 %)
B/P matrices and projection     :      0.003 s (26.010 %)
Hessian update/contruction      :      0.003 s (23.415 %)
Making the step                 :      0.004 s (28.954 %)
Converting the step to Cartesian:      0.000 s ( 2.089 %)
Storing new data                :      0.001 s ( 5.593 %)
Checking convergence            :      0.000 s ( 0.348 %)
Final printing                  :      0.002 s (11.821 %)
Total time                      :      0.013 s

Time for energy+gradient        :     12.550 s
Time for complete geometry iter :     14.272 s




    ----------------------------------------------------------------------------
                                  WARNING !!!
       The optimization did not converge but reached the maximum number of
       optimization cycles.
       Please check your results very carefully.
    ----------------------------------------------------------------------------



--------------------------------
SUGGESTED CITATIONS FOR THIS RUN
--------------------------------

Below you find a list of papers that are relevant to this ORCA run
We neither can nor want to force you to cite these papers, but we appreciate if you do
You receive ORCA, which is the product of decades of hard work by many enthusiastic individuals, for free
The only thing we kindly ask in return is that you cite our papers,
We deeply appreciate it, if you show your appreciation for ORCA by not just citing the generic ORCA reference.

Please note that relegating all ORCA citations to the supporting information does *not* help us.
SI sections are not indexed - citations you put there will not count into any citation statistics
But we need these citations in order to attract the funding resources that allow us to do what we are doing

Therefore, if you are a happy ORCA user, please consider citing a few of the papers listed below in the main body of your paper

In addition to the list printed below, the program has created the file 1b_ph3_opt.bibtex that contains the list in bibtex format
You can import this file easily into all common literature databanks and citation aid programs

It goes without saying that in many instances, there are alternative algorithms to achieve similar
results as the ones you have gotten from ORCA. It is, of course, also the case that in some instances
ORCA just re-implements algorithms worked out by others. We are fully aware of that and we are also
fully appreciative of our colleagues work. Hence this citation list should not be read as indicating
that the listed papers, which are focused on our own work, are the only ones worth citing. It simply
meant to make it easier for users to cite ORCA specific papers. It is not a substitute for doing your
own literature research and citing the relevant literature in a scientifically appropriate manner.

List of essential papers. We consider these as the minimum necessary citations

  1. Neese, F.
     Software update: the ORCA program system, version 6.0
     WIRES Comput. Molec. Sci. 2025 15(1), e70019
     doi.org/10.1002/wcms.70019

List of papers to cite with high priority. The work reported in these papers was absolutely
necessary for this run to complete.
Our perspective: the developers of density functionals and basis sets usually get cited in chemistry papers
Good! But without the algorithms to do something with them, the functionals or basis sets would not do anything.
Hence, in our opinion, the algorithm design and method developments papers are equally worthy of getting cited

  1. Neese, F.
     An improvement of the resolution of the identity approximation for the formation of the Coulomb matrix
     J. Comp. Chem. 2003 24(14), 1740-1747
     doi.org/10.1002/jcc.10318
  2. Neese, F.; Wennmohs, F.; Hansen, A.; Becker, U.
     Efficient, approximate and parallel Hartree-Fock and hybrid DFT calculations. A 'chain-of-spheres' algorithm for the Hartree-Fock exchange
     Chem. Phys. 2009 356(1-3), 98-109
     doi.org/10.1016/j.chemphys.2008.10.036
  3. Caldeweyher, E.; Bannwarth, C.; Grimme, S.
     Extension of the D3 dispersion coefficient model
     J. Chem. Phys. 2017 147 , 034112
     doi.org/10.1063/1.4993215
  4. Caldeweyher, E.; Ehlert, S.; Hansen, A.; Neugebauer, H.; Spicher, S.; Bannwarth, C.; Grimme, S.
     A generally applicable atomic-charge dependent London dispersion correction
     J. Chem. Phys. 2019 150 , 154122
     doi.org/10.1063/1.5090222
  5. Helmich-Paris, B.; de Souza, B.; Neese, F.; Izsák, R.
     An improved chain of spheres for exchange algorithm
     J. Chem. Phys. 2021 155(10), 104109
     doi.org/10.1063/5.0058766
  6. Neese, F.
     The SHARK Integral Generation and Digestion System
     J. Comp. Chem. 2022 44(3), 381
     doi.org/10.1002/jcc.26942

List of suggested additional citations. These are papers that are important in the 'surrounding' of 
of this run, or papers that preceded the highly important papers. If you like your results we are grateful for a citation.

  1. Izsak, R.; Neese, F.
     An overlap fitted chain of spheres exchange method
     J. Chem. Phys. 2011 135 , 144105
     doi.org/10.1063/1.3646921
  2. Izsak, R.; Hansen, A.; Neese, F.
     The resolution of identity and chain of spheres approximations for the LPNO-CCSD singles Fock term
     Molec. Phys. 2012 110 , 2413-2417
     doi.org/10.1080/00268976.2012.687466
  3. Neese, F.
     The ORCA program system
     WIRES Comput. Molec. Sci. 2012 2(1), 73-78
     doi.org/10.1002/wcms.81
  4. Izsak, R.; Neese, F.; Klopper, W.
     Robust fitting techniques in the chain of spheres approximation to the Fock exchange: The role of the complementary space
     J. Chem. Phys. 2013 139 , 
     doi.org/10.1063/1.4819264
  5. Neese, F.
     Software update: the ORCA program system, version 4.0
     WIRES Comput. Molec. Sci. 2018 8(1), 1-6
     doi.org/10.1002/wcms.1327
  6. Neese, F.; Wennmohs, F.; Becker, U.; Riplinger, C.
     The ORCA quantum chemistry program package
     J. Chem. Phys. 2020 152(22), 224108
     doi.org/10.1063/5.0004608
  7. Neese, F.
     Software update: The ORCA program system—Version 5.0
     WIRES Comput. Molec. Sci. 2022 12(1), e1606
     doi.org/10.1002/wcms.1606

List of optional additional citations

  1. Neese, F.
     Approximate second-order SCF convergence for spin unrestricted wavefunctions
     Chem. Phys. Lett. 2000 325(1-3), 93-98
     doi.org/10.1016/s0009-2614(00)00662-x

Timings for individual modules:

Sum of individual times          ...      645.415 sec (=  10.757 min)
Startup calculation              ...      188.410 sec (=   3.140 min)  29.2 %
SCF iterations                   ...      346.186 sec (=   5.770 min)  53.6 %
SCF Gradient evaluation          ...      109.884 sec (=   1.831 min)  17.0 %
Geometry relaxation              ...        0.651 sec (=   0.011 min)   0.1 %
Orbital localization             ...        0.285 sec (=   0.005 min)   0.0 %
                             ****ORCA TERMINATED NORMALLY****
TOTAL RUN TIME: 0 days 0 hours 12 minutes 13 seconds 782 msec
