
                                 *****************
                                 * O   R   C   A *
                                 *****************

                                            #,                                       
                                            ###                                      
                                            ####                                     
                                            #####                                    
                                            ######                                   
                                           ########,                                 
                                     ,,################,,,,,                         
                               ,,#################################,,                 
                          ,,##########################################,,             
                       ,#########################################, ''#####,          
                    ,#############################################,,   '####,        
                  ,##################################################,,,,####,       
                ,###########''''           ''''###############################       
              ,#####''   ,,,,##########,,,,          '''####'''          '####       
            ,##' ,,,,###########################,,,                        '##       
           ' ,,###''''                  '''############,,,                           
         ,,##''                                '''############,,,,        ,,,,,,###''
      ,#''                                            '''#######################'''  
     '                                                          ''''####''''         
             ,#######,   #######,   ,#######,      ##                                
            ,#'     '#,  ##    ##  ,#'     '#,    #''#        ,####,    ,#,          
            ##       ##  ##   ,#'  ##            #'  '#       #'       ,# #          
            ##       ##  #######   ##           ,######,      #####,      #          
            '#,     ,#'  ##    ##  '#,     ,#' ,#      #,     #,   #      #          
             '#######'   ##     ##  '#######'  #'      '#     '####' #    #          



                #########################################################
                #                        -***-                          #
                #          Department of theory and spectroscopy        #
                #                                                       #
                #                      Frank Neese                      #
                #                                                       #
                #     Directorship, Architecture, Infrastructure        #
                #                    SHARK, DRIVERS                     #
                #        Core code/Algorithms in most modules           #
                #                                                       #
                #        Max Planck Institute fuer Kohlenforschung      #
                #                Kaiser Wilhelm Platz 1                 #
                #                 D-45470 Muelheim/Ruhr                 #
                #                      Germany                          #
                #                                                       #
                #                  All rights reserved                  #
                #                        -***-                          #
                #########################################################


                         Program Version 6.1.1  -  RELEASE   -
                                (GIT: $487d211c$)
                          ($2025-11-21 10:33:24 +0100$)


 With contributions from (in alphabetic order):
[Max-Planck-Institut fuer Kohlenforschung]                               
  Daniel Aravena         : Magnetic Suceptibility                        
  Michael Atanasov       : Ab Initio Ligand Field Theory (pilot matlab implementation)
  Alexander A. Auer      : GIAO ZORA, VPT2 properties, NMR spectrum      
  Ute Becker             : All parallelization in ORCA, NUMFREQ, NUMCALC 
  Giovanni Bistoni       : ED, misc. LED, open-shell LED, HFLD           
  Dmytro Bykov           : pre 5.0 version of the SCF Hessian            
  Marcos Casanova-Páez   : Triplet and SCS-CIS(D). UHF-(DLPNO)-IP/EA/STEOM-CCSD. UHF-CVS-IP/STEOM-CCSD   
  Vijay G. Chilkuri      : MRCI spin determinant printing, contributions to CSF-ICE 
  Pauline Colinet        : FMM embedding                                 
  Dipayan Datta          : RHF DLPNO-CCSD density                        
  Achintya Kumar Dutta   : EOM-CC, STEOM-CC                              
  Nicolas Foglia         : Exact transition moments, OPA infrastructure, MCD improvements    
  Dmitry Ganyushin       : Spin-Orbit,Spin-Spin,Magnetic field MRCI      
  Miquel Garcia-Rates    : C-PCM and meta-GGA Hessian, CCSD/C-PCM, Gaussian charge scheme 
  Tiago L. C. Gouveia    : GS-ROHF, GS-ROCIS                             
  Yang Guo               : DLPNO-NEVPT2, F12-NEVPT2, CIM, IAO-localization        
  Andreas Hansen         : Spin unrestricted coupled pair/coupled cluster methods 
  Ingolf Harden          : AUTO-CI MPn and infrastructure                
  Benjamin Helmich-Paris : MC-RPA, TRAH-(SCF,CASSCF), AVAS, COSX integrals, SCF dyn. polar., MC-PDFT, srDFT 
  Lee Huntington         : MR-EOM, pCC                                   
  Robert Izsak           : Overlap fitted RIJCOSX, COSX-SCS-MP3, EOM     
  Riya Kayal             : Wick's Theorem for AUTO-CI, AUTO-CI UHF-CCSDT 
  Emily Kempfer          : AUTO-CI RHF CISDT and CCSDT, approximate NEVPT4
  Christian Kollmar      : KDIIS, OOCD, Brueckner-CCSD(T), CCSD density, CASPT2, CASPT2-K, improved NEVPT2 
  Axel Koslowski         : Symmetry handling                             
  Simone Kossmann        : meta-GGA functionals, TD-DFT gradient, OOMP2, (MP2 Hessian; deprecated post 5.0) 
  Lucas Lang             : DCDCAS, Hyperfine gauge corrections, ICE-SOC+SSC
  Marvin Lechner         : AUTO-CI (C++ implementation), FIC-MRCC        
  Spencer Leger          : CASSCF response                               
  Dagmar Lenk            : GEPOL surface, SMD, ORCA-2-JSON               
  Dimitrios Liakos       : Extrapolation schemes; Compound Job, Property file
  Dimitrios Manganas     : Further ROCIS development; embedding schemes. LFT, Crystal Embedding 
  Dimitrios Pantazis     : SARC Basis sets                               
  Anastasios Papadopoulos: AUTO-CI, single reference methods and gradients 
  Taras Petrenko         : pre 6.0 DFT Hessian and TD-DFT gradient,  ECA, NRVS 
  Petra Pikulova         : Analytic Raman intensities                    
  Peter Pinski           : DLPNO-MP2, DLPNO-MP2 Gradient                 
  Shashank Vittal Rao    : ES-AILFT, MagRelax                            
  Christoph Reimann      : Effective Core Potentials                     
  Marius Retegan         : Local ZFS, SOC                                
  Christoph Riplinger    : Optimizer, TS searches, QM/MM, DLPNO-CCSD(T), (RO)-DLPNO pert. Triples 
  Michael Roemelt        : Original ROCIS implementation, recursive CI coupling coefficients
  Masaaki Saitow         : Open-shell DLPNO-CCSD energy and density      
  Barbara Sandhoefer     : DKH picture change effects                    
  Yorick L. A. Schmerwitz: GMF and freeze-and-release deltaSCF, NEB S-IDPP initial path                    
  Kantharuban Sivalingam : CASSCF convergence/infrastructure, NEVPT2, NEVPT3, NEVPT4(SD), FIC-MRCI and CEPA variants
  Bernardo de Souza      : ESD, SOC TD-DFT                               
  Georgi L. Stoychev     : AutoAux, RI-MP2 NMR, DLPNO-MP2 response, X2C  
  Van Anh Tran           : RI-MP2 g-tensors                              
  Willem Van den Heuvel  : Paramagnetic NMR                              
  Zikuan Wang            : NOTCH, Electric field optimization            
  Frank Wennmohs         : Technical directorship and infrastructure     
  Hang Xu                : AUTO-CI-Response properties                   
                                                                         
[FACCTs GmbH]                                                            
  Markus Bursch, Nicolas Foglia, Miquel Garcia-Rates, Ingolf Harden, Hagen Neugebauer, Anastasios Papadopoulos, 
  Christoph Riplinger, Bernardo de Souza, Georgi L. Stoychev                                                    
                                                                 
  APM, various basis sets, CI-OPT, improved COSX, DLPNO-Multilevel,           
  DOCKER, DRACO, updates on ESD, Fragmentator, GOAT, IRC, LR-CPCM, L-BFGS, MBIS, meta-GGA TD-DFT gradient, ML-optimized integration grids, 
  MM, NACMEs, nearIR, NEB, NEB-TS, NL-DFT gradient (VV10), 2- and 3-layer-ONIOM, interface openCOSMO-RS, QMMM,   
  Crystal-QMMM, RESP, rigid body optimization, SF, symmetry and pop. for TD-DFT, various functionals, SOLVATOR                                   
                                                                         
[Other institutions]                                                     
  V. Asgeirsson          : NEB                                           
  Christoph Bannwarth    : sTDA-DFT, sTD-DFT, PBEh-3c, B97-3c, D3        
  Giovanni Bistoni       : ETS/NOCV, ADLD/ADEX, COVALED                  
  Martin Brehm           : Molecular dynamics                            
  Ronald Cardenas        : ETS/NOCV                                      
  Martina Colucci        : COVALED                                       
  Sebastian Ehlert       : rSCAN, r2SCAN, r2SCAN-3c, D4, dhf basis sets  
  Marvin Friede          : D4 for Fr, Ra, Ac-Lr                          
  Lars Goerigk           : TD-DFT with DH, B97 family of functionals     
  Stefan Grimme          : VdW corrections, initial TS optimization, DFT functionals, gCP, sTDA/sTD-DF 
  Waldemar Hujo          : DFT-NL                                        
  H. Jonsson             : NEB                                           
  Holger Kruse           : gCP                                           
  Marcel Mueller         : wB97X-3c, vDZP basis set                      
  Hagen Neugebauer       : wr2SCAN, Native XTB                           
  Gianluca Regni         : ADLD/ADEX                                     
  Tobias Risthaus        : pre 6.0 range-separated hybrid DFT and stability analysis
  Lukas Wittmann         : regularized MP2, r2SCAN double-hybrids, wr2SCAN        
                                                                         
We gratefully acknowledge several colleagues who have allowed us to      
interface, adapt or use parts of their codes:                            
  Ed Valeev, F. Pavosevic, A. Kumar             : LibInt (2-el integral package), F12 methods 
  Garnet Chan, S. Sharma, J. Yang, R. Olivares  : DMRG                   
  Ulf Ekstrom                                   : XCFun DFT Library      
  Mihaly Kallay                                 : mrcc  (arbitrary order and MRCC methods)
  Frank Weinhold                                : gennbo (NPA and NBO analysis)           
  Simon Mueller                                 : openCOSMO-RS                            
  Christopher J. Cramer and Donald G. Truhlar   : smd solvation model                     
  S Lehtola, MJT Oliveira, MAL Marques          : LibXC Library                           
  Liviu Ungur et al                             : ANISO software                          


 Your calculation uses the libint2 library for the computation of 2-el integrals
 For citations please refer to: http://libint.valeyev.net

 Your ORCA version has been built with support for libXC version: 7.0.0
 For citations please refer to: https://libxc.gitlab.io

 This ORCA versions uses:
   CBLAS   interface :  Fast vector & matrix operations
   LAPACKE interface :  Fast linear algebra routines
   SCALAPACK package :  Parallel linear algebra routines
   Shared memory     :  Shared parallel matrices
   BLAS/LAPACK       :  OpenBLAS 0.3.29  USE64BITINT DYNAMIC_ARCH NO_AFFINITY Cooperlake SINGLE_THREADED
        Core in use  :  Cooperlake
   Copyright (c) 2011-2014, The OpenBLAS Project


  ***********************************
  * Starting time: Mon Jul 20 18:43:58 2026
  * Host name:     c1-39
  * Process ID:    2088519
  * Working dir.:  /cluster/projects/nn14654k/ylvaos/TPhP_bsse/orca/geomopt_wb97x-d4_def2svp_ph3
  ***********************************

Your calculation utilizes the atom-pairwise dispersion correction
based on EEQ partial charges (D4)


Warning: RI is on but no J-basis has been assigned. Assigning Def2/J (nothing to worry about!)
================================================================================

----- Orbital basis set information -----
Your calculation utilizes the basis: def2-SVP
   F. Weigend and R. Ahlrichs, Phys. Chem. Chem. Phys. 7, 3297 (2005).

----- AuxJ basis set information -----
Your calculation utilizes the auxiliary basis: def2/J
   H-Rn: F. Weigend, Phys. Chem. Chem. Phys. 8, 1057 (2006).
   Fr-Lr: K. Eichkorn, F. Weigend, O. Treutler, R. Ahlrichs; Theor. Chem. Acc. 97, 119 (1997).

================================================================================
                                        WARNINGS
                       Please study these warnings very carefully!
================================================================================


WARNING: Geometry Optimization
  ===> : Switching off AutoStart
         For restart on a previous wavefunction, please use MOREAD

================================================================================
                                       INPUT FILE
================================================================================
NAME = TPhP_ph3_opt.inp
|  1> ! wB97X-D4 def2-SVP TightSCF defgrid3 Opt
|  2> 
|  3> %pal nprocs 32 end
|  4> 
|  5> %loc
|  6>   LocMet NEWBOYS
|  7>   Occ true
|  8> end
|  9> 
| 10> *xyz 0 1
| 11>  P        0.79443       -4.33409        0.12510
| 12>  H       -0.73097       -3.75634        1.02958
| 13>  H        0.82705       -6.08005        0.78158
| 14>  H        2.06058       -3.60921        1.28652
| 15> **                         ****END OF INPUT****
================================================================================

                       *****************************
                       * Geometry Optimization Run *
                       *****************************

Geometry optimization settings:
Update method            Update   .... BFGS
Choice of coordinates    CoordSys .... (2022) Redundant Internals
Initial Hessian          InHess   .... Almloef's Model
Max. no of cycles        MaxIter  .... 50

Convergence Tolerances:
Energy Change            TolE     ....  5.0000e-06 Eh
Max. Gradient            TolMAXG  ....  3.0000e-04 Eh/bohr
RMS Gradient             TolRMSG  ....  1.0000e-04 Eh/bohr
Max. Displacement        TolMAXD  ....  4.0000e-03 bohr
RMS Displacement         TolRMSD  ....  2.0000e-03 bohr
Strict Convergence                .... False

------------------------------------------------------------------------------
                        ORCA OPTIMIZATION COORDINATE SETUP
------------------------------------------------------------------------------

The optimization will be done in redundant internal coordinates (2022)
Making redundant internal coordinates   ...  (2022 redundants) done
Evaluating the initial hessian          ...  (Almloef) done
Evaluating the coordinates              ...  done
Calculating the B-matrix                .... done
Calculating the G-matrix                .... done
The number of degrees of freedom        ....    7

    -----------------------------------------------------------------
                    Redundant Internal Coordinates


    -----------------------------------------------------------------
         Definition                    Initial Value    Approx d2E/dq
    -----------------------------------------------------------------
      1. B(H   1,P   0)                  1.8651         0.070184   
      2. B(H   2,P   0)                  1.8656         0.070068   
      3. B(H   3,P   0)                  1.8648         0.070270   
      4. A(H   2,P   0,H   3)           97.6290         0.209217   
      5. A(H   1,P   0,H   2)           97.6751         0.209184   
      6. A(H   1,P   0,H   3)           97.6350         0.209262   
      7. I(H   1,H   3,H   2,P   0)    -78.3290         0.010000   
    -----------------------------------------------------------------

Number of atoms                         .... 4
Number of degrees of freedom            .... 7


         *************************************************************
         *                GEOMETRY OPTIMIZATION CYCLE   1            *
         *************************************************************
---------------------------------
CARTESIAN COORDINATES (ANGSTROEM)
---------------------------------
  P      0.794430   -4.334090    0.125100
  H     -0.730970   -3.756340    1.029580
  H      0.827050   -6.080050    0.781580
  H      2.060580   -3.609210    1.286520

----------------------------
CARTESIAN COORDINATES (A.U.)
----------------------------
  NO LB      ZA    FRAG     MASS         X           Y           Z
   0 P    15.0000    0    30.974    1.501255   -8.190243    0.236405
   1 H     1.0000    0     1.008   -1.381333   -7.098454    1.945624
   2 H     1.0000    0     1.008    1.562898  -11.489629    1.476972
   3 H     1.0000    0     1.008    3.893932   -6.820418    2.431170

--------------------------------
INTERNAL COORDINATES (ANGSTROEM)
--------------------------------
 P      0   0   0     0.000000000000     0.00000000     0.00000000
 H      1   0   0     1.865133853883     0.00000000     0.00000000
 H      1   2   0     1.865584727746    97.67508036     0.00000000
 H      1   2   3     1.864801129692    97.63495484   261.18630823

---------------------------
INTERNAL COORDINATES (A.U.)
---------------------------
 P      0   0   0     0.000000000000     0.00000000     0.00000000
 H      1   0   0     3.524592186944     0.00000000     0.00000000
 H      1   2   0     3.525444215066    97.67508036     0.00000000
 H      1   2   3     3.523963429345    97.63495484   261.18630823

---------------------
BASIS SET INFORMATION
---------------------
There are 2 groups of distinct atoms

 Group   1 Type P   : 10s7p1d contracted to 4s3p1d pattern {5311/511/1}
 Group   2 Type H   : 4s1p contracted to 2s1p pattern {31/1}

Atom   0P    basis set group =>   1
Atom   1H    basis set group =>   2
Atom   2H    basis set group =>   2
Atom   3H    basis set group =>   2
---------------------------------
AUXILIARY/J BASIS SET INFORMATION
---------------------------------
There are 2 groups of distinct atoms

 Group   1 Type P   : 14s5p5d2f1g contracted to 8s4p3d1f1g pattern {71111111/2111/311/2/1}
 Group   2 Type H   : 5s2p1d contracted to 3s1p1d pattern {311/2/1}

Atom   0P    basis set group =>   1
Atom   1H    basis set group =>   2
Atom   2H    basis set group =>   2
Atom   3H    basis set group =>   2


           ************************************************************
           *        Program running with 32 parallel MPI-processes    *
           *              working on a common directory               *
           ************************************************************
------------------------------------------------------------------------------
                             ORCA STARTUP CALCULATIONS
                           -- RI-GTO INTEGRALS CHOSEN --
------------------------------------------------------------------------------
------------------------------------------------------------------------------
                   ___                                                        
                  /   \      - P O W E R E D   B Y -                         
                 /     \                                                     
                 |  |  |   _    _      __       _____    __    __             
                 |  |  |  | |  | |    /  \     |  _  \  |  |  /  |          
                  \  \/   | |  | |   /    \    | | | |  |  | /  /          
                 / \  \   | |__| |  /  /\  \   | |_| |  |  |/  /          
                |  |  |   |  __  | /  /__\  \  |    /   |      \           
                |  |  |   | |  | | |   __   |  |    \   |  |\   \          
                \     /   | |  | | |  |  |  |  | |\  \  |  | \   \       
                 \___/    |_|  |_| |__|  |__|  |_| \__\ |__|  \__/        
                                                                              
                      - O R C A' S   B I G   F R I E N D -                    
                                      &                                       
                       - I N T E G R A L  F E E D E R -                       
                                                                              
 v1 FN, 2020, v2 2021, v3 2022-2024                                           
------------------------------------------------------------------------------


----------------------
SHARK INTEGRAL PACKAGE
----------------------

Number of atoms                             ...      4
Number of basis functions                   ...     33
Number of shells                            ...     17
Maximum angular momentum                    ...      2
Integral batch strategy                     ... SHARK/LIBINT Hybrid
RI-J (if used) integral strategy            ... SPLIT-RIJ (Revised 2003 algorithm where possible)
Printlevel                                  ...      1
Contraction scheme used                     ... SEGMENTED contraction
Prescreening option                         ... SCHWARTZ
   Thresh                                   ... 2.500e-11
   Tcut                                     ... 2.500e-12
   Tpresel                                  ... 2.500e-12 
Coulomb Range Separation                    ... NOT USED
Exchange Range Separation                   ... Long Range
   Mu parameter                             ... 3.000e-01
   Scaling (regular/separated)              ... 1.670e-01 8.330e-01
Robust (split-)RI terms used:
  metric    (central integrals)             ... YES
  density   (r.h.s.  integrals)             ... YES
  potential (l.h.s.  integrals)             ... YES
Multipole approximations                    ... NOT USED
Finite Nucleus Model                        ... NOT USED
CABS basis                                  ... NOT available
Auxiliary Coulomb fitting basis             ... AVAILABLE
   # of basis functions in Aux-J            ...     84
   # of shells in Aux-J                     ...     32
   Maximum angular momentum in Aux-J        ...      4
Auxiliary J/K fitting basis                 ... NOT available
Auxiliary Correlation fitting basis         ... NOT available
Auxiliary 'external' fitting basis          ... NOT available

Checking pre-screening integrals            ... done (  0.0 sec) Dimension = 17
   => SHARK Basis and OBASIS are compatible. Storing Pre-screening
Shell pair information
Shell pair cut-off parameter TPreSel        ...   2.5e-12
Total number of shell pairs                 ...       153
Shell pairs after pre-screening             ...       153
Total number of primitive shell pairs       ...       593
Primitive shell pairs kept                  ...       548
          la=0 lb=0:     55 shell pairs
          la=1 lb=0:     60 shell pairs
          la=1 lb=1:     21 shell pairs
          la=2 lb=0:     10 shell pairs
          la=2 lb=1:      6 shell pairs
          la=2 lb=2:      1 shell pairs

Checking whether 4 symmetric matrices of dimension 33 fit in memory
:Max Core in MB      =   4096.00
 MB in use           =      3.35
 MB left             =   4092.65
 MB needed           =      0.02
 Data fit in memory  = YES
Calculating RI/J V-Matrix + Cholesky decomp.... done (  0.1 sec)
Calculating Nuclear repulsion               ... done (  0.0 sec) ENN=     13.332573510987 Eh

Diagonalization of the overlap matrix:
Smallest eigenvalue                        ... 3.919e-02
Time for diagonalization                   ...    0.001 sec
Threshold for overlap eigenvalues          ... 1.000e-07
Number of eigenvalues below threshold      ... 0
Time for construction of square roots      ...    0.014 sec
Total time needed                          ...    0.017 sec

-------------------
DFT GRID GENERATION
-------------------

General Integration Accuracy     IntAcc      ... 4.959
Radial Grid Type                 RadialGrid  ... OptM3 with GC (2021)
Angular Grid (max. ang.)         AngularGrid ... 6 (Lebedev-590)
Angular grid pruning method      GridPruning ... 4 (adaptive)
Weight generation scheme         WeightScheme... mBecke (2022)
Basis function cutoff            BFCut       ... 1.0000e-11
Integration weight cutoff        WCut        ... 1.0000e-14
Partially contracted basis set               ... off
Rotationally invariant grid construction     ... off
Angular grids for H and He will be reduced by one unit

Total number of grid points                  ...    43834
Total number of batches                      ...      687
Average number of points per batch           ...       63
Average number of grid points per atom       ...    10958

--------------------
COSX GRID GENERATION
--------------------

GRIDX 1
-------
General Integration Accuracy     IntAcc      ... 4.020
Radial Grid Type                 RadialGrid  ... OptM3 with GC (2021)
Angular Grid (max. ang.)         AngularGrid ... 2 (Lebedev-110)
Angular grid pruning method      GridPruning ... 4 (adaptive)
Weight generation scheme         WeightScheme... mBecke (2022)
Basis function cutoff            BFCut       ... 1.0000e-11
Integration weight cutoff        WCut        ... 1.0000e-14
Partially contracted basis set               ... on
Rotationally invariant grid construction     ... off
Angular grids for H and He will be reduced by one unit

Total number of grid points                  ...     4421
Total number of batches                      ...       35
Average number of points per batch           ...      126
Average number of grid points per atom       ...     1105
UseSFitting                                  ... on

GRIDX 2
-------
General Integration Accuracy     IntAcc      ... 4.338
Radial Grid Type                 RadialGrid  ... OptM3 with GC (2021)
Angular Grid (max. ang.)         AngularGrid ... 3 (Lebedev-194)
Angular grid pruning method      GridPruning ... 4 (adaptive)
Weight generation scheme         WeightScheme... mBecke (2022)
Basis function cutoff            BFCut       ... 1.0000e-11
Integration weight cutoff        WCut        ... 1.0000e-14
Partially contracted basis set               ... on
Rotationally invariant grid construction     ... off
Angular grids for H and He will be reduced by one unit

Total number of grid points                  ...    10360
Total number of batches                      ...       84
Average number of points per batch           ...      123
Average number of grid points per atom       ...     2590
UseSFitting                                  ... on

GRIDX 3
-------
General Integration Accuracy     IntAcc      ... 4.871
Radial Grid Type                 RadialGrid  ... OptM3 with GC (2021)
Angular Grid (max. ang.)         AngularGrid ... 4 (Lebedev-302)
Angular grid pruning method      GridPruning ... 4 (adaptive)
Weight generation scheme         WeightScheme... mBecke (2022)
Basis function cutoff            BFCut       ... 1.0000e-11
Integration weight cutoff        WCut        ... 1.0000e-14
Partially contracted basis set               ... on
Rotationally invariant grid construction     ... off
Angular grids for H and He will be reduced by one unit

Total number of grid points                  ...    20965
Total number of batches                      ...      166
Average number of points per batch           ...      126
Average number of grid points per atom       ...     5241
UseSFitting                                  ... on
Grids setup in   0.5 sec
Initializing property integral containers    ... done (  0.0 sec)

SHARK setup successfully completed in   1.4 seconds

Maximum memory used throughout the entire STARTUP-calculation: 12.7 MB


           ************************************************************
           *        Program running with 32 parallel MPI-processes    *
           *              working on a common directory               *
           ************************************************************
-------------------------------------------------------------------------------
                                 ORCA GUESS
                   Start orbitals & Density for SCF / CASSCF
-------------------------------------------------------------------------------

------------
SCF SETTINGS
------------
Hamiltonian:
 Density Functional     Method          .... DFT(GTOs)
 Exchange Functional    Exchange        .... WB97X-V
 Correlation Functional Correlation     .... WB97X-V
 Gradients option       PostSCFGGA      .... off
 Hybrid DFT is turned on
   Fraction HF Exchange ScalHFX         ....  0.167000
   Scaling of DF-GGA-X  ScalDFX         ....  0.000000
   Scaling of DF-GGA-C  ScalDFC         ....  1.000000
   Scaling of DF-LDA-C  ScalLDAC        ....  1.000000
   Perturbative correction              ....  0.000000
 Long-range corrected/Screened/Range-Separated Hybrid DFT is turned on
   Amount of maximum screened exact exchange              ....  0.833000
   Range separation parameter mu (erf(mu*r12)/r12)        ....  0.300000
 RI-approximation to the Coulomb term is turned on
   Number of AuxJ basis functions       .... 84
   RIJ-COSX (HFX calculated with COS-X)).... on


General Settings:
 Integral files         IntName         .... TPhP_ph3_opt
 Hartree-Fock type      HFTyp           .... RHF
 Total Charge           Charge          ....    0
 Multiplicity           Mult            ....    1
 Number of Electrons    NEL             ....   18
 Basis Dimension        Dim             ....   33
 Nuclear Repulsion      ENuc            ....     13.3325735110 Eh

Convergence Acceleration:
 AO-DIIS                CNVDIIS         .... on
   Start iteration      DIISMaxIt       ....    12
   Startup error        DIISStart       ....  0.200000
   # of expansion vecs  DIISMaxEq       ....     5
   Bias factor          DIISBfac        ....   1.050
   Max. coefficient     DIISMaxC        ....  10.000
 MO-DIIS                CNVKDIIS        .... off
 Trust-Rad. Augm. Hess. CNVTRAH         .... auto
   Auto Start mean grad. ratio tolernc. ....  1.125000
   Auto Start start iteration           ....    50
   Auto Start num. interpolation iter.  ....    10
   Max. Number of Micro iterations      ....    24
   Max. Number of Macro iterations      .... Maxiter - #DIIS iter
   Number of Davidson start vectors     ....     2
   Converg. threshold    (grad. norm)   ....   1.000e-05
   Grad. Scal. Fac. for Micro threshold ....   0.100
   Minimum threshold for Micro iter.    ....   1.000e-02
   NR start threshold (gradient norm)   ....   1.000e-04
   Initial trust radius                 ....   0.400
   Minimum AH scaling param. (alpha)    ....   1.000
   Maximum AH scaling param. (alpha)    .... 1000.000
   Quad. conv. algorithm                .... NR
   White noise on init. David. guess    .... on
   Maximum white noise                  ....   0.010
   Pseudo random numbers                .... off
   Inactive MOs                         .... canonical
   Orbital update algorithm             .... Taylor
   Preconditioner                       .... Diag
   Full preconditioner red. dimension   ....   250
 SOSCF                 CNVSOSCF           .... on
   Start iteration     SOSCFMaxIt         ....   150
   Startup grad/error  SOSCFStart         ....  0.003300
   Hessian update      SOSCFHessUp        .... L-BFGS
   Autom. constraints  SOSCFAutoConstrain .... off
 Level Shifting         CNVShift        .... on
   Level shift para.    LevelShift      ....    0.2500
   Turn off err/grad.   ShiftErr        ....    0.0010
 Zerner damping         CNVZerner       .... off
 Static damping         CNVDamp         .... on
   Fraction old density DampFac         ....    0.7000
   Max. Damping (<1)    DampMax         ....    0.9800
   Min. Damping (>=0)   DampMin         ....    0.0000
   Turn off err/grad.   DampErr         ....    0.1000

SCF Procedure:
 Maximum # iterations   MaxIter         ....   125
 SCF integral mode      SCFMode         .... Direct
   Integral package                     .... SHARK and LIBINT hybrid scheme
 Reset frequency        DirectResetFreq ....    20
 Integral Threshold     Thresh          ....  2.500e-11 Eh
 Primitive CutOff       TCut            ....  2.500e-12 Eh

Convergence Tolerance:
 Convergence Check Mode ConvCheckMode   .... Total+1el-Energy
 Convergence forced     ConvForced      .... 0
 Energy Change          TolE            ....  1.000e-08 Eh
 1-El. energy change                    ....  1.000e-05 Eh
 Orbital Gradient       TolG            ....  1.000e-05
 Orbital Rotation angle TolX            ....  1.000e-05
 DIIS Error             TolErr          ....  5.000e-07

------------------------------
INITIAL GUESS: MODEL POTENTIAL
------------------------------
Loading Hartree-Fock densities                     ... done
Calculating cut-offs                               ... done
Initializing the effective Hamiltonian             ... done
Setting up the integral package (SHARK)            ... done
Starting the Coulomb interaction                   ... done (   0.1 sec)
Making the grid                                    ... done (   0.0 sec)
Mapping shells                                     ... done
Starting the XC term evaluation                    ... done (   0.0 sec)
  promolecular density results
     # of electrons  =     17.998590362
     EX              =    -16.993996824
     EC              =     -0.833025584
     EX+EC           =    -17.827022407
Transforming the Hamiltonian                       ... done (   0.0 sec)
Diagonalizing the Hamiltonian                      ... done (   0.0 sec)
Back transforming the eigenvectors                 ... done (   0.0 sec)
Now organizing SCF variables                       ... done
                      ------------------
                      INITIAL GUESS DONE (   0.2 sec)
                      ------------------
             **** ENERGY FILE WAS UPDATED (TPhP_ph3_opt.en.tmp) ****
Finished Guess after   0.4 sec
Maximum memory used throughout the entire GUESS-calculation: 5.5 MB


           ************************************************************
           *        Program running with 32 parallel MPI-processes    *
           *              working on a common directory               *
           ************************************************************

-------------------------------------------------------------------------------------------
                                      ORCA LEAN-SCF
                              memory conserving SCF solver
-------------------------------------------------------------------------------------------

----------------------------------------D-I-I-S--------------------------------------------
Iteration    Energy (Eh)           Delta-E    RMSDP     MaxDP     DIISErr   Damp  Time(sec)
-------------------------------------------------------------------------------------------
               ***  Starting incremental Fock matrix formation  ***
    1    -342.8750284793825926     0.00e+00  3.55e-02  1.06e-01  1.58e-01  0.700   0.4
    2    -342.8921016502716270    -1.71e-02  2.90e-02  8.54e-02  1.03e-01  0.700   0.1
                               ***Turning on AO-DIIS***
    3    -342.9022585282692717    -1.02e-02  1.64e-02  4.71e-02  6.50e-02  0.700   0.1
    4    -342.9085393773800661    -6.28e-03  3.64e-02  1.06e-01  4.45e-02  0.000   0.1
                              *** Initializing SOSCF ***
---------------------------------------S-O-S-C-F--------------------------------------
Iteration    Energy (Eh)           Delta-E    RMSDP     MaxDP     MaxGrad    Time(sec)
--------------------------------------------------------------------------------------
    5    -342.9222208852937683    -1.37e-02  2.27e-03  5.22e-03  2.36e-03     0.1
               *** Restarting incremental Fock matrix formation ***
    6    -342.9222546816863542    -3.38e-05  1.43e-03  2.74e-03  7.89e-04     0.1
    7    -342.9222652613682385    -1.06e-05  1.05e-03  1.85e-03  4.55e-04     0.1
    8    -342.9222676911898589    -2.43e-06  2.40e-04  8.44e-04  1.19e-04     0.1
    9    -342.9222677905602836    -9.94e-08  3.99e-05  8.81e-05  4.91e-05     0.1
   10    -342.9222678110722313    -2.05e-08  1.34e-05  3.14e-05  7.12e-06     0.1
   11    -342.9222678122545744    -1.18e-09  1.78e-06  5.14e-06  8.26e-07     0.1
                 **** Energy Check signals convergence ****

               *****************************************************
               *                     SUCCESS                       *
               *           SCF CONVERGED AFTER  11 CYCLES          *
               *****************************************************

Recomputing exchange energy using gridx3       ... done (    0.027 sec)
Old exchange energy                            :     -6.226309808 Eh
New exchange energy                            :     -6.226307693 Eh
Exchange energy change after final integration :      0.000002116 Eh
Total energy after final integration           :   -342.922265697 Eh
             **** ENERGY FILE WAS UPDATED (TPhP_ph3_opt.en.tmp) ****

----------------
TOTAL SCF ENERGY
----------------

Total Energy       :       -342.92226569708174 Eh           -9331.38925 eV

Components:
Nuclear Repulsion  :         13.33257351098703 Eh             362.79777 eV
Electronic Energy  :       -356.25484132399055 Eh           -9694.18708 eV
One Electron Energy:       -499.41943312804267 Eh          -13589.89367 eV
Two Electron Energy:        143.16459180405212 Eh            3895.70660 eV

Virial components:
Potential Energy   :       -684.08680647931362 Eh          -18614.94837 eV
Kinetic Energy     :        341.16454078223188 Eh            9283.55912 eV
Virial Ratio       :          2.00515213248956

DFT components:
N(Alpha)           :        9.000000012342 electrons
N(Beta)            :        9.000000012342 electrons
N(Total)           :       18.000000024684 electrons
E(X)               :      -16.979568564101 Eh       
E(C)               :       -0.835913873362 Eh       
E(XC)              :      -17.815482437464 Eh       

---------------
SCF CONVERGENCE
---------------

  Last Energy change         ...    1.1823e-09  Tolerance :   1.0000e-08
  Last MAX-Density change    ...    5.1440e-06  Tolerance :   1.0000e-07
  Last RMS-Density change    ...    1.7765e-06  Tolerance :   5.0000e-09
  Last DIIS Error            ...    2.3650e-03  Tolerance :   5.0000e-07
  Last Orbital Gradient      ...    8.2571e-07  Tolerance :   1.0000e-05
  Last Orbital Rotation      ...    2.1034e-06  Tolerance :   1.0000e-05


----------------
ORBITAL ENERGIES
----------------

  NO   OCC          E(Eh)            E(eV) 
   0   2.0000     -77.139480     -2099.0720 
   1   2.0000      -6.724092      -182.9718 
   2   2.0000      -4.881429      -132.8304 
   3   2.0000      -4.881429      -132.8304 
   4   2.0000      -4.879222      -132.7704 
   5   2.0000      -0.715128       -19.4596 
   6   2.0000      -0.436052       -11.8656 
   7   2.0000      -0.436008       -11.8644 
   8   2.0000      -0.374256       -10.1840 
   9   0.0000       0.036114         0.9827 
  10   0.0000       0.041013         1.1160 
  11   0.0000       0.041063         1.1174 
  12   0.0000       0.440399        11.9839 
  13   0.0000       0.512289        13.9401 
  14   0.0000       0.512406        13.9433 
  15   0.0000       0.517116        14.0714 
  16   0.0000       0.631820        17.1927 
  17   0.0000       0.631845        17.1934 
  18   0.0000       0.638305        17.3692 
  19   0.0000       0.658477        17.9181 
*Only the first 10 virtual orbitals were printed.

                    ********************************
                    * MULLIKEN POPULATION ANALYSIS *
                    ********************************

-----------------------
MULLIKEN ATOMIC CHARGES
-----------------------
   0 P :    0.064063
   1 H :   -0.021358
   2 H :   -0.021382
   3 H :   -0.021323
Sum of atomic charges:   -0.0000000

--------------------------------
MULLIKEN REDUCED ORBITAL CHARGES
--------------------------------
  0 P s       :     5.869553  s :     5.869553
      pz      :     3.239242  p :     9.008490
      px      :     2.881107
      py      :     2.888141
      dz2     :     0.001744  d :     0.057894
      dxz     :     0.020960
      dyz     :     0.012325
      dx2y2   :     0.016167
      dxy     :     0.006698

  1 H s       :     1.012762  s :     1.012762
      pz      :     0.002465  p :     0.008596
      px      :     0.005090
      py      :     0.001041

  2 H s       :     1.012795  s :     1.012795
      pz      :     0.001654  p :     0.008587
      px      :     0.000369
      py      :     0.006564

  3 H s       :     1.012721  s :     1.012721
      pz      :     0.003569  p :     0.008601
      px      :     0.003605
      py      :     0.001428



                     *******************************
                     * LOEWDIN POPULATION ANALYSIS *
                     *******************************

----------------------
LOEWDIN ATOMIC CHARGES
----------------------
   0 P :    0.155305
   1 H :   -0.051770
   2 H :   -0.051784
   3 H :   -0.051751

-------------------------------
LOEWDIN REDUCED ORBITAL CHARGES
-------------------------------
  0 P s       :     5.743456  s :     5.743456
      pz      :     3.252370  p :     9.038178
      px      :     2.889354
      py      :     2.896453
      dz2     :     0.001964  d :     0.063061
      dxz     :     0.022538
      dyz     :     0.013141
      dx2y2   :     0.017872
      dxy     :     0.007546

  1 H s       :     1.034616  s :     1.034616
      pz      :     0.005241  p :     0.017154
      px      :     0.009801
      py      :     0.002113

  2 H s       :     1.034651  s :     1.034651
      pz      :     0.003654  p :     0.017133
      px      :     0.000859
      py      :     0.012620

  3 H s       :     1.034582  s :     1.034582
      pz      :     0.007383  p :     0.017169
      px      :     0.006948
      py      :     0.002839



                      *****************************
                      * MAYER POPULATION ANALYSIS *
                      *****************************

  NA   - Mulliken gross atomic population
  ZA   - Total nuclear charge
  QA   - Mulliken gross atomic charge
  VA   - Mayer's total valence
  BVA  - Mayer's bonded valence
  FA   - Mayer's free valence

  ATOM       NA         ZA         QA         VA         BVA        FA
  0 P     14.9359    15.0000     0.0641     2.9262     2.9262    -0.0000
  1 H      1.0214     1.0000    -0.0214     0.9825     0.9825    -0.0000
  2 H      1.0214     1.0000    -0.0214     0.9825     0.9825     0.0000
  3 H      1.0213     1.0000    -0.0213     0.9824     0.9824     0.0000

  Mayer bond orders larger than 0.100000
B(  0-P ,  1-H ) :   0.9754 B(  0-P ,  2-H ) :   0.9754 B(  0-P ,  3-H ) :   0.9754 


-------
TIMINGS
-------

Total SCF time: 0 days 0 hours 0 min 2 sec 

Total time                  ....       2.022 sec
Sum of individual times     ....       1.888 sec  ( 93.4%)

SCF preparation             ....       0.374 sec  ( 18.5%)
Fock matrix formation       ....       1.294 sec  ( 64.0%)
  Startup                   ....       0.019 sec  (  1.5% of F)
  Split-RI-J                ....       0.236 sec  ( 18.2% of F)
  Chain of spheres X        ....       0.406 sec  ( 31.4% of F)
  XC integration            ....       0.471 sec  ( 36.4% of F)
    XC Preparation          ....       0.000 sec  (  0.0% of XC)
    Basis function eval.    ....       0.015 sec  (  3.2% of XC)
    Density eval.           ....       0.003 sec  (  0.7% of XC)
    XC-Functional eval.     ....       0.026 sec  (  5.5% of XC)
    XC-Potential eval.      ....       0.005 sec  (  1.1% of XC)
Diagonalization             ....       0.000 sec  (  0.0%)
Density matrix formation    ....       0.054 sec  (  2.7%)
Total Energy calculation    ....       0.023 sec  (  1.1%)
Population analysis         ....       0.033 sec  (  1.6%)
Orbital Transformation      ....       0.014 sec  (  0.7%)
Orbital Orthonormalization  ....       0.000 sec  (  0.0%)
DIIS solution               ....       0.047 sec  (  2.3%)
SOSCF solution              ....       0.051 sec  (  2.5%)
Finished LeanSCF after   2.1 sec

Maximum memory used throughout the entire LEANSCF-calculation: 4.8 MB
------------------------------------------------------------------------------
                           ORCA ORBITAL LOCALIZATION
------------------------------------------------------------------------------

Input orbitals are from                  ... TPhP_ph3_opt.gbw
Output orbitals are to                   ... TPhP_ph3_opt.loc
Max. number of iterations                ... 128
Localizations seeded randomly            ... on
Convergence tolerance                    ... 1.000e-06
Threshold for strong local MOs           ... 9.500e-01
Threshold for bond MOs                   ... 8.500e-01
Operator                                 ... 0
Orbital range for localization           ... 2 to 8
Localization criterion                   ... NEW-BOYS
Doing the dipole integrals               ... o.k.
Initial value of the localization sum :     5.037788
ITERATION   0 : L=   16.2128785040 DL=  1.12e+01 (AVERGE_DL)=    0.7294841694 
ITERATION   1 : L=   16.6324338014 DL=  4.20e-01 (AVERGE_DL)=    0.1413464668 
ITERATION   2 : L=   16.6327891713 DL=  3.55e-04 (AVERGE_DL)=    0.0041136812 
ITERATION   3 : L=   16.6327902128 DL=  1.04e-06 (AVERGE_DL)=    0.0002227003 
ITERATION   4 : L=   16.6327902135 DL=  7.33e-10 (AVERGE_DL)=    0.0000059070 
LOCALIZATION SUM CONVERGED


--------------------------------------------------------------------------------
                    LOCALIZED MOLECULAR ORBITAL COMPOSITIONS
--------------------------------------------------------------------------------

The Mulliken populations for each LMO on each atom are computed
The LMO`s will be ordered according to atom index and type
  (A) Strongly localized MO`s have populations of >=0.950 on one atom
  (B) Two center bond orbitals have populations of >=0.850 on two atoms
  (C) Other MO`s are considered to be `delocalized`

FOUND  -   4 strongly local MO`s
       -   3 two center bond MO`s
       -   0 significantly delocalized MO`s

Rather strongly localized orbitals:
MO   5:   0P  -   0.993361
MO   4:   0P  -   1.000038
MO   3:   0P  -   1.000038
MO   2:   0P  -   1.000000
Bond-like localized orbitals:
MO   8:   3H  -   0.511499  and   0P  -   0.491736
MO   7:   2H  -   0.511505  and   0P  -   0.491727
MO   6:   1H  -   0.511505  and   0P  -   0.491724
Localized MO's were stored in: TPhP_ph3_opt.loc


-------------------------------------------------------------------------------
                          DFT DISPERSION CORRECTION                            
                                                                               
                                DFTD4 V3.4.0                                   
-------------------------------------------------------------------------------
The WB97X-D3BJ functional is recognized
Active option DFTDOPT                   ...         5   

-------------------------   ----------------
Dispersion correction           -0.002651954
-------------------------   ----------------


-------------------------   --------------------
FINAL SINGLE POINT ENERGY      -342.924917651507
-------------------------   --------------------



           ************************************************************
           *        Program running with 32 parallel MPI-processes    *
           *              working on a common directory               *
           ************************************************************
------------------------------------------------------------------------------
                         ORCA SCF GRADIENT CALCULATION
------------------------------------------------------------------------------

Nuc. rep. gradient        (SHARK) ... done (  0.0 sec)
HCore & Overlap gradient  (SHARK) ... done (  0.0 sec)
Split-RIJ-J gradient      (SHARK) ... done (  0.4 sec)
COSX-gradient                     ... done (  0.1 sec)
XC gradient                       ... done (  0.0 sec)
Dispersion correction             ... done (  0.1 sec)

-------------------
DISPERSION GRADIENT
-------------------

   1   P   :   -0.000149449   -0.000294564    0.001750422
   2   H   :    0.000929489   -0.000345722   -0.000581917
   3   H   :   -0.000017247    0.001073236   -0.000433962
   4   H   :   -0.000762792   -0.000432951   -0.000734543

Difference to translation invariance:
           :   -0.0000000000   -0.0000000000    0.0000000000

Difference to rotation invariance:
           :   -0.0000000000    0.0000000000   -0.0000000000

Norm of the Dispersion gradient    ...    0.0026729180
RMS gradient                       ...    0.0007716050
MAX gradient                       ...    0.0017504223

------------------
CARTESIAN GRADIENT
------------------

   1   P   :    0.007416487    0.014542628   -0.089469192
   2   H   :   -0.061335931    0.024611705    0.029696734
   3   H   :    0.001926780   -0.069722877    0.019625859
   4   H   :    0.051992663    0.030568544    0.040146600

Difference to translation invariance:
           :    0.0000000000    0.0000000000    0.0000000000

Difference to rotation invariance:
           :    0.0000014217    0.0000012726   -0.0000004156

Norm of the Cartesian gradient     ...    0.1549856312
RMS gradient                       ...    0.0447404979
MAX gradient                       ...    0.0894691925

-------
TIMINGS
-------

Total SCF gradient time     ....        0.630 sec

Densities                   ....       0.000 sec  (  0.1%)
One electron gradient       ....       0.004 sec  (  0.7%)
RI-J Coulomb gradient       ....       0.389 sec  ( 61.8%)
COSX gradient               ....       0.089 sec  ( 14.2%)
XC gradient                 ....       0.047 sec  (  7.4%)

Maximum memory used throughout the entire SCFGRAD-calculation: 25.4 MB
------------------------------------------------------------------------------
                         ORCA GEOMETRY RELAXATION STEP
------------------------------------------------------------------------------

Reading the OPT-File                    .... done
Getting information on internals        .... done
Copying old internal coords+grads       .... done
Making the new internal coordinates     .... (2022 redundants) done
Validating the new internal coordinates .... (2022 redundants) done
Calculating the B-matrix                .... done
Calculating the G,G- and P matrices     .... done
Transforming gradient to internals      .... done
Projecting the internal gradient        .... done
Number of atoms                         ....   4
Number of internal coordinates          ....   7
Current Energy                          ....  -342.924917652 Eh
Current gradient norm                   ....     0.154985631 Eh/bohr
Maximum allowed component of the step   ....  0.300
Current trust radius                    ....  0.300
Evaluating the initial hessian          ....  (Almloef) done
Projecting the Hessian                  .... done
Forming the augmented Hessian           .... done
Diagonalizing the augmented Hessian     .... done
Last element of RFO vector              ....  0.796844285
Lowest eigenvalues of augmented Hessian:
 -0.096147697  0.070115726  0.070232790  0.100066288  0.164989677
Length of the computed step             ....  0.758221825
Warning: the length of the step is outside the trust region - taking restricted step instead
The input lambda is                     ....     0.069068
   iter:   5  x=    0.061859  g=183714.038336 f(x)=   509.062703
   iter:  10  x=    0.007219  g=  421.609339 f(x)=     8.806215
   iter:  15  x=   -0.286788  g=    1.475803 f(x)=     0.116060
   iter:  20  x=   -0.351501  g=    0.425663 f(x)=     0.000000
The output lambda is                    ....    -0.351501 (21 iterations)
The final length of the internal step   ....  0.300000000
Converting the step to Cartesian space:
 Initial RMS(Int)=    0.1133893419
Transforming coordinates:
 Iter   0:  RMS(Cart)=    0.0884756583 RMS(Int)=    0.1132287900
 Iter   5:  RMS(Cart)=    0.0000000050 RMS(Int)=    0.0000000066
done
Storing new coordinates                 .... done

                                .--------------------.
          ----------------------|Geometry convergence|-------------------------
          Item                value                   Tolerance       Converged
          ---------------------------------------------------------------------
          RMS gradient        0.0479997255            0.0001000000      NO
          MAX gradient        0.0721920446            0.0003000000      NO
          RMS step            0.1133893419            0.0020000000      NO
          MAX step            0.1712460404            0.0040000000      NO
          -------------------------------------------------------------------------
          ........................................................
          Max(Bonds)      0.0906      Max(Angles)    1.59
          Max(Dihed)        0.00      Max(Improp)    1.61
          ---------------------------------------------------------------------

The optimization has not yet converged - more geometry cycles are needed


    ---------------------------------------------------------------------------
                         Redundant Internal Coordinates
                            (Angstroem and degrees)

        Definition                    Value    dE/dq     Step     New-Value
    ----------------------------------------------------------------------------
     1. B(H   1,P   0)                1.8651  0.072188 -0.0906    1.7745   
     2. B(H   2,P   0)                1.8656  0.072192 -0.0906    1.7750   
     3. B(H   3,P   0)                1.8648  0.072188 -0.0906    1.7742   
     4. A(H   2,P   0,H   3)           97.63  0.015268   -1.59     96.04   
     5. A(H   1,P   0,H   2)           97.68  0.007092   -0.92     96.75   
     6. A(H   1,P   0,H   3)           97.63  0.007058   -0.92     96.71   
     7. I(H   1,H   3,H   2,P   0)    -78.33  0.012675   -1.61    -79.93   
    ----------------------------------------------------------------------------

Geometry step timings:
Preparation and reading OPT file:      0.000 s ( 5.784 %)
Internal coordinates            :      0.000 s ( 0.660 %)
B/P matrices and projection     :      0.000 s ( 2.483 %)
Hessian update/contruction      :      0.002 s (50.739 %)
Making the step                 :      0.000 s ( 3.332 %)
Converting the step to Cartesian:      0.000 s ( 1.100 %)
Storing new data                :      0.000 s (14.115 %)
Checking convergence            :      0.000 s ( 1.226 %)
Final printing                  :      0.001 s (20.560 %)
Total time                      :      0.003 s

Time for energy+gradient        :      7.655 s
Time for complete geometry iter :      9.218 s

         *************************************************************
         *                GEOMETRY OPTIMIZATION CYCLE   2            *
         *************************************************************
---------------------------------
CARTESIAN COORDINATES (ANGSTROEM)
---------------------------------
  P      0.790136   -4.335131    0.140779
  H     -0.651495   -3.794821    1.023259
  H      0.826587   -5.985869    0.792113
  H      1.985862   -3.663869    1.266629

----------------------------
CARTESIAN COORDINATES (A.U.)
----------------------------
  NO LB      ZA    FRAG     MASS         X           Y           Z
   0 P    15.0000    0    30.974    1.493141   -8.192210    0.266033
   1 H     1.0000    0     1.008   -1.231147   -7.171172    1.933680
   2 H     1.0000    0     1.008    1.562023  -11.311653    1.496876
   3 H     1.0000    0     1.008    3.752736   -6.923710    2.393583

--------------------------------
INTERNAL COORDINATES (ANGSTROEM)
--------------------------------
 P      0   0   0     0.000000000000     0.00000000     0.00000000
 H      1   0   0     1.774543821228     0.00000000     0.00000000
 H      1   2   0     1.774965226016    96.74002119     0.00000000
 H      1   2   3     1.774230191541    96.70428914   263.07796824

---------------------------
INTERNAL COORDINATES (A.U.)
---------------------------
 P      0   0   0     0.000000000000     0.00000000     0.00000000
 H      1   0   0     3.353401834762     0.00000000     0.00000000
 H      1   2   0     3.354198174403    96.74002119     0.00000000
 H      1   2   3     3.352809160548    96.70428914   263.07796824



           ************************************************************
           *        Program running with 32 parallel MPI-processes    *
           *              working on a common directory               *
           ************************************************************
------------------------------------------------------------------------------
                   ___                                                        
                  /   \      - P O W E R E D   B Y -                         
                 /     \                                                     
                 |  |  |   _    _      __       _____    __    __             
                 |  |  |  | |  | |    /  \     |  _  \  |  |  /  |          
                  \  \/   | |  | |   /    \    | | | |  |  | /  /          
                 / \  \   | |__| |  /  /\  \   | |_| |  |  |/  /          
                |  |  |   |  __  | /  /__\  \  |    /   |      \           
                |  |  |   | |  | | |   __   |  |    \   |  |\   \          
                \     /   | |  | | |  |  |  |  | |\  \  |  | \   \       
                 \___/    |_|  |_| |__|  |__|  |_| \__\ |__|  \__/        
                                                                              
                      - O R C A' S   B I G   F R I E N D -                    
                                      &                                       
                       - I N T E G R A L  F E E D E R -                       
                                                                              
 v1 FN, 2020, v2 2021, v3 2022-2024                                           
------------------------------------------------------------------------------


----------------------
SHARK INTEGRAL PACKAGE
----------------------

Number of atoms                             ...      4
Number of basis functions                   ...     33
Number of shells                            ...     17
Maximum angular momentum                    ...      2
Integral batch strategy                     ... SHARK/LIBINT Hybrid
RI-J (if used) integral strategy            ... SPLIT-RIJ (Revised 2003 algorithm where possible)
Printlevel                                  ...      1
Contraction scheme used                     ... SEGMENTED contraction
Prescreening option                         ... SCHWARTZ
   Thresh                                   ... 2.500e-11
   Tcut                                     ... 2.500e-12
   Tpresel                                  ... 2.500e-12 
Coulomb Range Separation                    ... NOT USED
Exchange Range Separation                   ... Long Range
   Mu parameter                             ... 3.000e-01
   Scaling (regular/separated)              ... 1.670e-01 8.330e-01
Robust (split-)RI terms used:
  metric    (central integrals)             ... YES
  density   (r.h.s.  integrals)             ... YES
  potential (l.h.s.  integrals)             ... YES
Multipole approximations                    ... NOT USED
Finite Nucleus Model                        ... NOT USED
CABS basis                                  ... NOT available
Auxiliary Coulomb fitting basis             ... AVAILABLE
   # of basis functions in Aux-J            ...     84
   # of shells in Aux-J                     ...     32
   Maximum angular momentum in Aux-J        ...      4
Auxiliary J/K fitting basis                 ... NOT available
Auxiliary Correlation fitting basis         ... NOT available
Auxiliary 'external' fitting basis          ... NOT available

Checking pre-screening integrals            ... done (  0.0 sec) Dimension = 17
   => SHARK Basis and OBASIS are compatible. Storing Pre-screening
Shell pair information
Shell pair cut-off parameter TPreSel        ...   2.5e-12
Total number of shell pairs                 ...       153
Shell pairs after pre-screening             ...       153
Total number of primitive shell pairs       ...       593
Primitive shell pairs kept                  ...       551
          la=0 lb=0:     55 shell pairs
          la=1 lb=0:     60 shell pairs
          la=1 lb=1:     21 shell pairs
          la=2 lb=0:     10 shell pairs
          la=2 lb=1:      6 shell pairs
          la=2 lb=2:      1 shell pairs

Checking whether 4 symmetric matrices of dimension 33 fit in memory
:Max Core in MB      =   4096.00
 MB in use           =      3.36
 MB left             =   4092.64
 MB needed           =      0.02
 Data fit in memory  = YES
Calculating RI/J V-Matrix + Cholesky decomp.... done (  0.0 sec)
Calculating Nuclear repulsion               ... done (  0.0 sec) ENN=     14.018522403296 Eh

Diagonalization of the overlap matrix:
Smallest eigenvalue                        ... 3.391e-02
Time for diagonalization                   ...    0.001 sec
Threshold for overlap eigenvalues          ... 1.000e-07
Number of eigenvalues below threshold      ... 0
Time for construction of square roots      ...    0.002 sec
Total time needed                          ...    0.004 sec

-------------------
DFT GRID GENERATION
-------------------

General Integration Accuracy     IntAcc      ... 4.959
Radial Grid Type                 RadialGrid  ... OptM3 with GC (2021)
Angular Grid (max. ang.)         AngularGrid ... 6 (Lebedev-590)
Angular grid pruning method      GridPruning ... 4 (adaptive)
Weight generation scheme         WeightScheme... mBecke (2022)
Basis function cutoff            BFCut       ... 1.0000e-11
Integration weight cutoff        WCut        ... 1.0000e-14
Partially contracted basis set               ... off
Rotationally invariant grid construction     ... off
Angular grids for H and He will be reduced by one unit

Total number of grid points                  ...    43802
Total number of batches                      ...      687
Average number of points per batch           ...       63
Average number of grid points per atom       ...    10950

--------------------
COSX GRID GENERATION
--------------------

GRIDX 1
-------
General Integration Accuracy     IntAcc      ... 4.020
Radial Grid Type                 RadialGrid  ... OptM3 with GC (2021)
Angular Grid (max. ang.)         AngularGrid ... 2 (Lebedev-110)
Angular grid pruning method      GridPruning ... 4 (adaptive)
Weight generation scheme         WeightScheme... mBecke (2022)
Basis function cutoff            BFCut       ... 1.0000e-11
Integration weight cutoff        WCut        ... 1.0000e-14
Partially contracted basis set               ... on
Rotationally invariant grid construction     ... off
Angular grids for H and He will be reduced by one unit

Total number of grid points                  ...     4418
Total number of batches                      ...       37
Average number of points per batch           ...      119
Average number of grid points per atom       ...     1104
UseSFitting                                  ... on

GRIDX 2
-------
General Integration Accuracy     IntAcc      ... 4.338
Radial Grid Type                 RadialGrid  ... OptM3 with GC (2021)
Angular Grid (max. ang.)         AngularGrid ... 3 (Lebedev-194)
Angular grid pruning method      GridPruning ... 4 (adaptive)
Weight generation scheme         WeightScheme... mBecke (2022)
Basis function cutoff            BFCut       ... 1.0000e-11
Integration weight cutoff        WCut        ... 1.0000e-14
Partially contracted basis set               ... on
Rotationally invariant grid construction     ... off
Angular grids for H and He will be reduced by one unit

Total number of grid points                  ...    10355
Total number of batches                      ...       84
Average number of points per batch           ...      123
Average number of grid points per atom       ...     2589
UseSFitting                                  ... on

GRIDX 3
-------
General Integration Accuracy     IntAcc      ... 4.871
Radial Grid Type                 RadialGrid  ... OptM3 with GC (2021)
Angular Grid (max. ang.)         AngularGrid ... 4 (Lebedev-302)
Angular grid pruning method      GridPruning ... 4 (adaptive)
Weight generation scheme         WeightScheme... mBecke (2022)
Basis function cutoff            BFCut       ... 1.0000e-11
Integration weight cutoff        WCut        ... 1.0000e-14
Partially contracted basis set               ... on
Rotationally invariant grid construction     ... off
Angular grids for H and He will be reduced by one unit

Total number of grid points                  ...    20947
Total number of batches                      ...      165
Average number of points per batch           ...      126
Average number of grid points per atom       ...     5237
UseSFitting                                  ... on
Grids setup in   0.4 sec
Initializing property integral containers    ... done (  0.0 sec)

SHARK setup successfully completed in   0.5 seconds

Maximum memory used throughout the entire STARTUP-calculation: 12.7 MB


           ************************************************************
           *        Program running with 32 parallel MPI-processes    *
           *              working on a common directory               *
           ************************************************************
Occupation numbers will be reassigned to an Aufbau configuration
             **** ENERGY FILE WAS UPDATED (TPhP_ph3_opt.en.tmp) ****
Finished Guess after   0.2 sec
Maximum memory used throughout the entire GUESS-calculation: 5.5 MB


           ************************************************************
           *        Program running with 32 parallel MPI-processes    *
           *              working on a common directory               *
           ************************************************************
----------------------------------------D-I-I-S--------------------------------------------
Iteration    Energy (Eh)           Delta-E    RMSDP     MaxDP     DIISErr   Damp  Time(sec)
-------------------------------------------------------------------------------------------
               ***  Starting incremental Fock matrix formation  ***
    1    -342.9588982213305712     0.00e+00  2.67e-03  4.03e-03  1.82e-02  0.700   0.1
    2    -342.9591628311749218    -2.65e-04  2.58e-03  4.23e-03  1.28e-02  0.700   0.1
                               ***Turning on AO-DIIS***
    3    -342.9593770032739712    -2.14e-04  2.55e-03  5.99e-03  8.95e-03  0.700   0.1
    4    -342.9595429027221485    -1.66e-04  7.14e-03  1.87e-02  6.27e-03  0.000   0.1
                              *** Initializing SOSCF ***
---------------------------------------S-O-S-C-F--------------------------------------
Iteration    Energy (Eh)           Delta-E    RMSDP     MaxDP     MaxGrad    Time(sec)
--------------------------------------------------------------------------------------
    5    -342.9600077281440349    -4.65e-04  1.16e-03  3.91e-03  8.88e-04     0.1
               *** Restarting incremental Fock matrix formation ***
    6    -342.9600175129430681    -9.78e-06  8.58e-04  2.44e-03  7.20e-04     0.1
    7    -342.9600215809390988    -4.07e-06  7.09e-04  2.13e-03  3.15e-04     0.1
    8    -342.9600226591419982    -1.08e-06  5.00e-05  1.76e-04  2.45e-05     0.1
    9    -342.9600226628756445    -3.73e-09  1.16e-05  1.98e-05  1.22e-05     0.1
                 **** Energy Check signals convergence ****

               *****************************************************
               *                     SUCCESS                       *
               *           SCF CONVERGED AFTER   9 CYCLES          *
               *****************************************************

Recomputing exchange energy using gridx3       ... done (    0.028 sec)
Old exchange energy                            :     -6.242799643 Eh
New exchange energy                            :     -6.242801067 Eh
Exchange energy change after final integration :     -0.000001424 Eh
Total energy after final integration           :   -342.960024090 Eh
             **** ENERGY FILE WAS UPDATED (TPhP_ph3_opt.en.tmp) ****

----------------
TOTAL SCF ENERGY
----------------

Total Energy       :       -342.96002408975795 Eh           -9332.41671 eV

Components:
Nuclear Repulsion  :         14.01852240329602 Eh             381.46339 eV
Electronic Energy  :       -356.97854506892543 Eh           -9713.88006 eV
One Electron Energy:       -500.91009856755966 Eh          -13630.45674 eV
Two Electron Energy:        143.93155349863420 Eh            3916.57669 eV

Virial components:
Potential Energy   :       -684.22014486505702 Eh          -18618.57669 eV
Kinetic Energy     :        341.26012077529907 Eh            9286.15999 eV
Virial Ratio       :          2.00498125392031

DFT components:
N(Alpha)           :        8.999999957931 electrons
N(Beta)            :        8.999999957931 electrons
N(Total)           :       17.999999915862 electrons
E(X)               :      -17.009066020965 Eh       
E(C)               :       -0.839277503432 Eh       
E(XC)              :      -17.848343524397 Eh       

---------------
SCF CONVERGENCE
---------------

  Last Energy change         ...    3.7336e-09  Tolerance :   1.0000e-08
  Last MAX-Density change    ...    1.9804e-05  Tolerance :   1.0000e-07
  Last RMS-Density change    ...    1.1606e-05  Tolerance :   5.0000e-09
  Last DIIS Error            ...    8.8787e-04  Tolerance :   5.0000e-07
  Last Orbital Gradient      ...    1.2232e-05  Tolerance :   1.0000e-05
  Last Orbital Rotation      ...    1.5079e-05  Tolerance :   1.0000e-05


Total SCF time: 0 days 0 hours 0 min 1 sec 
Finished LeanSCF after   1.5 sec

Maximum memory used throughout the entire LEANSCF-calculation: 4.8 MB
------------------------------------------------------------------------------
                           ORCA ORBITAL LOCALIZATION
------------------------------------------------------------------------------

Input orbitals are from                  ... TPhP_ph3_opt.gbw
Output orbitals are to                   ... TPhP_ph3_opt.loc
Max. number of iterations                ... 128
Localizations seeded randomly            ... on
Convergence tolerance                    ... 1.000e-06
Threshold for strong local MOs           ... 9.500e-01
Threshold for bond MOs                   ... 8.500e-01
Operator                                 ... 0
Orbital range for localization           ... 2 to 8
Localization criterion                   ... NEW-BOYS
Doing the dipole integrals               ... o.k.
Initial value of the localization sum :     4.568954
ITERATION   0 : L=   15.1083227129 DL=  1.05e+01 (AVERGE_DL)=    0.7084311692 
ITERATION   1 : L=   15.5959873710 DL=  4.88e-01 (AVERGE_DL)=    0.1523880789 
ITERATION   2 : L=   15.5964575299 DL=  4.70e-04 (AVERGE_DL)=    0.0047316508 
ITERATION   3 : L=   15.5964596140 DL=  2.08e-06 (AVERGE_DL)=    0.0003150253 
ITERATION   4 : L=   15.5964596152 DL=  1.24e-09 (AVERGE_DL)=    0.0000076698 
LOCALIZATION SUM CONVERGED


--------------------------------------------------------------------------------
                    LOCALIZED MOLECULAR ORBITAL COMPOSITIONS
--------------------------------------------------------------------------------

The Mulliken populations for each LMO on each atom are computed
The LMO`s will be ordered according to atom index and type
  (A) Strongly localized MO`s have populations of >=0.950 on one atom
  (B) Two center bond orbitals have populations of >=0.850 on two atoms
  (C) Other MO`s are considered to be `delocalized`

FOUND  -   4 strongly local MO`s
       -   3 two center bond MO`s
       -   0 significantly delocalized MO`s

Rather strongly localized orbitals:
MO   5:   0P  -   0.999077
MO   4:   0P  -   1.000073
MO   3:   0P  -   1.000073
MO   2:   0P  -   1.000063
Bond-like localized orbitals:
MO   8:   3H  -   0.512745  and   0P  -   0.491955
MO   7:   2H  -   0.512743  and   0P  -   0.491955
MO   6:   1H  -   0.512665  and   0P  -   0.491882
Localized MO's were stored in: TPhP_ph3_opt.loc


-------------------------------------------------------------------------------
                          DFT DISPERSION CORRECTION                            
                                                                               
                                DFTD4 V3.4.0                                   
-------------------------------------------------------------------------------
-------------------------   ----------------
Dispersion correction           -0.002402270
-------------------------   ----------------


-------------------------   --------------------
FINAL SINGLE POINT ENERGY      -342.962426360142
-------------------------   --------------------



           ************************************************************
           *        Program running with 32 parallel MPI-processes    *
           *              working on a common directory               *
           ************************************************************
------------------------------------------------------------------------------
                         ORCA SCF GRADIENT CALCULATION
------------------------------------------------------------------------------

Nuc. rep. gradient        (SHARK) ... done (  0.0 sec)
HCore & Overlap gradient  (SHARK) ... done (  0.0 sec)
Split-RIJ-J gradient      (SHARK) ... done (  0.1 sec)
COSX-gradient                     ... done (  0.1 sec)
XC gradient                       ... done (  0.0 sec)
Dispersion correction             ... done (  0.0 sec)

-------------------
DISPERSION GRADIENT
-------------------

   1   P   :   -0.000021211   -0.000045314    0.000259416
   2   H   :    0.000098927   -0.000031830   -0.000086192
   3   H   :   -0.000000384    0.000117276   -0.000071474
   4   H   :   -0.000077331   -0.000040132   -0.000101750

Difference to translation invariance:
           :   -0.0000000000   -0.0000000000   -0.0000000000

Difference to rotation invariance:
           :    0.0000000000    0.0000000000   -0.0000000000

Norm of the Dispersion gradient    ...    0.0003533195
RMS gradient                       ...    0.0001019945
MAX gradient                       ...    0.0002594160

------------------
CARTESIAN GRADIENT
------------------

   1   P   :    0.006656550    0.015108202   -0.090212736
   2   H   :   -0.058561398    0.023219981    0.029714982
   3   H   :    0.002314699   -0.066532723    0.020566102
   4   H   :    0.049590149    0.028204540    0.039931652

Difference to translation invariance:
           :    0.0000000000   -0.0000000000    0.0000000000

Difference to rotation invariance:
           :    0.0000006660    0.0000009623   -0.0000011301

Norm of the Cartesian gradient     ...    0.1515474559
RMS gradient                       ...    0.0437479822
MAX gradient                       ...    0.0902127356

-------
TIMINGS
-------

Total SCF gradient time     ....        0.181 sec

Densities                   ....       0.000 sec  (  0.2%)
One electron gradient       ....       0.003 sec  (  1.6%)
RI-J Coulomb gradient       ....       0.057 sec  ( 31.8%)
COSX gradient               ....       0.073 sec  ( 40.6%)
XC gradient                 ....       0.017 sec  (  9.4%)

Maximum memory used throughout the entire SCFGRAD-calculation: 25.4 MB
------------------------------------------------------------------------------
                         ORCA GEOMETRY RELAXATION STEP
------------------------------------------------------------------------------

Reading the OPT-File                    .... done
Getting information on internals        .... done
Copying old internal coords+grads       .... done
Making the new internal coordinates     .... (2022 redundants) done
Validating the new internal coordinates .... (2022 redundants) done
Calculating the B-matrix                .... done
Calculating the G,G- and P matrices     .... done
Transforming gradient to internals      .... done
Projecting the internal gradient        .... done
Number of atoms                         ....   4
Number of internal coordinates          ....   7
Current Energy                          ....  -342.962426360 Eh
Current gradient norm                   ....     0.151547456 Eh/bohr
Maximum allowed component of the step   ....  0.300
Current trust radius                    ....  0.300
Updating the Hessian (BFGS)             .... done
Forming the augmented Hessian           .... done
Diagonalizing the augmented Hessian     .... done
Last element of RFO vector              ....  0.731315930
Lowest eigenvalues of augmented Hessian:
 -0.113354895  0.070116378  0.070232777  0.101744791  0.130622019
Length of the computed step             ....  0.932618633
Warning: the length of the step is outside the trust region - taking restricted step instead
The input lambda is                     ....     0.015751
   iter:   5  x=    0.009158  g=226536.356160 f(x)=   573.316448
   iter:  10  x=   -0.040617  g=  520.876337 f(x)=     9.902770
   iter:  15  x=   -0.316419  g=    1.748704 f(x)=     0.134353
   iter:  20  x=   -0.388153  g=    0.444137 f(x)=     0.000000
The output lambda is                    ....    -0.388153 (21 iterations)
The final length of the internal step   ....  0.300000000
Converting the step to Cartesian space:
 Initial RMS(Int)=    0.1133893419
Transforming coordinates:
 Iter   0:  RMS(Cart)=    0.0861793163 RMS(Int)=    0.1132885304
 Iter   5:  RMS(Cart)=    0.0000000061 RMS(Int)=    0.0000000078
done
Storing new coordinates                 .... done
The predicted energy change is          ....    -0.035710255
Previously predicted energy change      ....    -0.034858939
Actually observed energy change         ....    -0.037508709
Ratio of predicted to observed change   ....     1.076014073
New trust radius                        ....     0.450000000

                                .--------------------.
          ----------------------|Geometry convergence|-------------------------
          Item                value                   Tolerance       Converged
          ---------------------------------------------------------------------
          Energy change      -0.0375087086            0.0000050000      NO
          RMS gradient        0.0459791115            0.0001000000      NO
          MAX gradient        0.0694706396            0.0003000000      NO
          RMS step            0.1133893419            0.0020000000      NO
          MAX step            0.1718510246            0.0040000000      NO
          -------------------------------------------------------------------------
[...]

Virial components:
Potential Energy   :       -684.98929905802515 Eh          -18639.50644 eV
Kinetic Energy     :        341.93873651453475 Eh            9304.62606 eV
Virial Ratio       :          2.00325153575839

DFT components:
N(Alpha)           :        8.999999981825 electrons
N(Beta)            :        8.999999981825 electrons
N(Total)           :       17.999999963649 electrons
E(X)               :      -17.164950561659 Eh       
E(C)               :       -0.853500675943 Eh       
E(XC)              :      -18.018451237602 Eh       

---------------
SCF CONVERGENCE
---------------

  Last Energy change         ...    2.2138e-09  Tolerance :   1.0000e-08
  Last MAX-Density change    ...    2.5859e-05  Tolerance :   1.0000e-07
  Last RMS-Density change    ...    8.7904e-06  Tolerance :   5.0000e-09
  Last DIIS Error            ...    8.9958e-05  Tolerance :   5.0000e-07
  Last Orbital Gradient      ...    3.8560e-06  Tolerance :   1.0000e-05
  Last Orbital Rotation      ...    1.0554e-05  Tolerance :   1.0000e-05


----------------
ORBITAL ENERGIES
----------------

  NO   OCC          E(Eh)            E(eV) 
   0   2.0000     -77.065269     -2097.0526 
   1   2.0000      -6.662374      -181.2924 
   2   2.0000      -4.819733      -131.1516 
   3   2.0000      -4.819732      -131.1516 
   4   2.0000      -4.816915      -131.0749 
   5   2.0000      -0.772687       -21.0259 
   6   2.0000      -0.489347       -13.3158 
   7   2.0000      -0.489339       -13.3156 
   8   2.0000      -0.374121       -10.1804 
   9   0.0000       0.127099         3.4586 
  10   0.0000       0.127105         3.4587 
  11   0.0000       0.148619         4.0441 
  12   0.0000       0.421118        11.4592 
  13   0.0000       0.421122        11.4593 
  14   0.0000       0.459790        12.5115 
  15   0.0000       0.579164        15.7599 
  16   0.0000       0.611028        16.6269 
  17   0.0000       0.611032        16.6270 
  18   0.0000       0.705028        19.1848 
  19   0.0000       0.747835        20.3496 
*Only the first 10 virtual orbitals were printed.

                    ********************************
                    * MULLIKEN POPULATION ANALYSIS *
                    ********************************

-----------------------
MULLIKEN ATOMIC CHARGES
-----------------------
   0 P :    0.062358
   1 H :   -0.020780
   2 H :   -0.020795
   3 H :   -0.020783
Sum of atomic charges:    0.0000000

--------------------------------
MULLIKEN REDUCED ORBITAL CHARGES
--------------------------------
  0 P s       :     5.688848  s :     5.688848
      pz      :     3.378484  p :     9.149903
      px      :     2.880805
      py      :     2.890614
      dz2     :     0.003827  d :     0.098890
      dxz     :     0.038357
      dyz     :     0.024088
      dx2y2   :     0.024032
      dxy     :     0.008586

  1 H s       :     1.003144  s :     1.003144
      pz      :     0.006159  p :     0.017636
      px      :     0.008388
      py      :     0.003089

  2 H s       :     1.003159  s :     1.003159
      pz      :     0.005123  p :     0.017636
      px      :     0.002163
      py      :     0.010350

  3 H s       :     1.003147  s :     1.003147
      pz      :     0.007574  p :     0.017636
      px      :     0.006457
      py      :     0.003605



                     *******************************
                     * LOEWDIN POPULATION ANALYSIS *
                     *******************************

----------------------
LOEWDIN ATOMIC CHARGES
----------------------
   0 P :    0.180272
   1 H :   -0.060088
   2 H :   -0.060095
   3 H :   -0.060090

-------------------------------
LOEWDIN REDUCED ORBITAL CHARGES
-------------------------------
  0 P s       :     5.404122  s :     5.404122
      pz      :     3.449684  p :     9.283928
      px      :     2.911818
      py      :     2.922426
      dz2     :     0.004361  d :     0.131678
      dxz     :     0.050003
      dyz     :     0.030684
      dx2y2   :     0.033819
      dxy     :     0.012812

  1 H s       :     1.015958  s :     1.015958
      pz      :     0.017660  p :     0.044129
      px      :     0.019690
      py      :     0.006779

  2 H s       :     1.015965  s :     1.015965
      pz      :     0.014679  p :     0.044129
      px      :     0.004775
      py      :     0.024676

  3 H s       :     1.015960  s :     1.015960
      pz      :     0.021551  p :     0.044130
      px      :     0.014640
      py      :     0.007939



                      *****************************
                      * MAYER POPULATION ANALYSIS *
                      *****************************

  NA   - Mulliken gross atomic population
  ZA   - Total nuclear charge
  QA   - Mulliken gross atomic charge
  VA   - Mayer's total valence
  BVA  - Mayer's bonded valence
  FA   - Mayer's free valence

  ATOM       NA         ZA         QA         VA         BVA        FA
  0 P     14.9376    15.0000     0.0624     2.9228     2.9228     0.0000
  1 H      1.0208     1.0000    -0.0208     0.9738     0.9738     0.0000
  2 H      1.0208     1.0000    -0.0208     0.9738     0.9738     0.0000
  3 H      1.0208     1.0000    -0.0208     0.9738     0.9738    -0.0000

  Mayer bond orders larger than 0.100000
B(  0-P ,  1-H ) :   0.9743 B(  0-P ,  2-H ) :   0.9743 B(  0-P ,  3-H ) :   0.9743 


-------
TIMINGS
-------

Total SCF time: 0 days 0 hours 0 min 0 sec 

Total time                  ....       0.826 sec
Sum of individual times     ....       0.698 sec  ( 84.6%)

SCF preparation             ....       0.298 sec  ( 36.1%)
Fock matrix formation       ....       0.307 sec  ( 37.2%)
  Startup                   ....       0.011 sec  (  3.6% of F)
  Split-RI-J                ....       0.029 sec  (  9.5% of F)
  Chain of spheres X        ....       0.130 sec  ( 42.2% of F)
  XC integration            ....       0.146 sec  ( 47.4% of F)
    XC Preparation          ....       0.000 sec  (  0.0% of XC)
    Basis function eval.    ....       0.003 sec  (  2.3% of XC)
    Density eval.           ....       0.001 sec  (  0.9% of XC)
    XC-Functional eval.     ....       0.005 sec  (  3.6% of XC)
    XC-Potential eval.      ....       0.001 sec  (  0.6% of XC)
Diagonalization             ....       0.000 sec  (  0.0%)
Density matrix formation    ....       0.014 sec  (  1.7%)
Total Energy calculation    ....       0.008 sec  (  1.0%)
Population analysis         ....       0.021 sec  (  2.5%)
Orbital Transformation      ....       0.006 sec  (  0.7%)
Orbital Orthonormalization  ....       0.000 sec  (  0.0%)
DIIS solution               ....       0.021 sec  (  2.5%)
SOSCF solution              ....       0.023 sec  (  2.8%)
Finished LeanSCF after   0.9 sec

Maximum memory used throughout the entire LEANSCF-calculation: 5.1 MB
------------------------------------------------------------------------------
                           ORCA ORBITAL LOCALIZATION
------------------------------------------------------------------------------

Input orbitals are from                  ... TPhP_ph3_opt.gbw
Output orbitals are to                   ... TPhP_ph3_opt.loc
Max. number of iterations                ... 128
Localizations seeded randomly            ... on
Convergence tolerance                    ... 1.000e-06
Threshold for strong local MOs           ... 9.500e-01
Threshold for bond MOs                   ... 8.500e-01
Operator                                 ... 0
Orbital range for localization           ... 2 to 8
Localization criterion                   ... NEW-BOYS
Doing the dipole integrals               ... o.k.
Initial value of the localization sum :     5.506945
ITERATION   0 : L=   11.3656388022 DL=  5.86e+00 (AVERGE_DL)=    0.5281906883 
ITERATION   1 : L=   11.9000926768 DL=  5.34e-01 (AVERGE_DL)=    0.1595311396 
ITERATION   2 : L=   11.9070388267 DL=  6.95e-03 (AVERGE_DL)=    0.0181870569 
ITERATION   3 : L=   11.9070409086 DL=  2.08e-06 (AVERGE_DL)=    0.0003148590 
ITERATION   4 : L=   11.9070409199 DL=  1.14e-08 (AVERGE_DL)=    0.0000232488 
LOCALIZATION SUM CONVERGED


--------------------------------------------------------------------------------
                    LOCALIZED MOLECULAR ORBITAL COMPOSITIONS
--------------------------------------------------------------------------------

The Mulliken populations for each LMO on each atom are computed
The LMO`s will be ordered according to atom index and type
  (A) Strongly localized MO`s have populations of >=0.950 on one atom
  (B) Two center bond orbitals have populations of >=0.850 on two atoms
  (C) Other MO`s are considered to be `delocalized`

FOUND  -   4 strongly local MO`s
       -   3 two center bond MO`s
       -   0 significantly delocalized MO`s

Rather strongly localized orbitals:
MO   5:   0P  -   1.017244
MO   4:   0P  -   1.000564
MO   3:   0P  -   1.000564
MO   2:   0P  -   1.000409
Bond-like localized orbitals:
MO   8:   3H  -   0.525413  and   0P  -   0.483981
MO   7:   2H  -   0.525419  and   0P  -   0.483976
MO   6:   1H  -   0.525411  and   0P  -   0.483982
Localized MO's were stored in: TPhP_ph3_opt.loc


-------------------------------------------------------------------------------
                          DFT DISPERSION CORRECTION                            
                                                                               
                                DFTD4 V3.4.0                                   
-------------------------------------------------------------------------------
The WB97X-D3BJ functional is recognized
Active option DFTDOPT                   ...         5   

-------------------------   ----------------
Dispersion correction           -0.002357971
-------------------------   ----------------


-------------------------   --------------------
FINAL SINGLE POINT ENERGY      -343.052920514219
-------------------------   --------------------

                                *** OPTIMIZATION RUN DONE ***



           ************************************************************
           *        Program running with 32 parallel MPI-processes    *
           *              working on a common directory               *
           ************************************************************

------------------------------------------------------------------------------
                              ORCA PROPERTY CALCULATIONS
------------------------------------------------------------------------------

GBWName                                 ... TPhP_ph3_opt.gbw
Number of atoms                         ...      4
Number of basis functions               ...     33
Max core memory                         ...   4096 MB

Electric properties:
Dipole moment                           ... YES
Quadrupole moment                       ...  NO
Static polarizability (Dipole/Dipole)   ...  NO
Static polarizability (Dipole/Quad.)    ...  NO
Static polarizability (Quad./Quad.)     ...  NO
Static polarizability (Velocity)        ...  NO
Static hyperpolarizability              ...  NO

Atomic electric properties:
Dipole moment                           ...  NO
Quadrupole moment                       ...  NO
Static polarizability                   ...  NO

Choice of electric origin               ... Center of mass
Position of electric origin             ...     1.472776    -8.245858     0.577903

General magnetic properties:
Magnetizability                         ...  NO

EPR properties:
g-Tensor (aka g-matrix)                 ...  NO
Zero-Field splitting spin-orbit         ...  NO
Zero-field splitting spin-spin          ...  NO
Hyperfine couplings                     ...  NO (   0 nuclei)
Quadrupole couplings                    ...  NO (   0 nuclei)
Contact density                         ...  NO (   0 nuclei)

NMR properties:
Chemical shifts                         ...  NO (   0 nuclei)
Spin-rotation constants                 ...  NO (   0 nuclei)
Spin-spin couplings                     ...  NO (   0 nuclei,    0 pairs)

Choice of magnetic origin               ... GIAO
Position of magnetic origin             ...     0.000000     0.000000     0.000000

Properties with geometric perturbations:
SCF Hessian                             ...  NO
IR spectrum                             ...  NO
VCD spectrum                            ...  NO
X-ray spectroscopy properties:
SCF XES/XAS/RIXS spectra                ...  NO

SCF SOC stabilization energy            ...  NO
Diagonal Born-Oppenheimer correction    ...  NO

-------------
DIPOLE MOMENT
-------------

Method             : SCF
Type of density    : Electron Density
Multiplicity       :   1
Irrep              :   0
Energy             :  -343.0505625434904573 Eh
Basis              : AO
                                X                 Y                 Z
Electronic contribution:      0.137342959       0.268897792      -1.651093354
Nuclear contribution   :     -0.166313102      -0.325540221       1.999107513
                        -----------------------------------------
Total Dipole Moment    :     -0.028970143      -0.056642430       0.348014159
                        -----------------------------------------
Magnitude (a.u.)       :      0.353781696
Magnitude (Debye)      :      0.899241608



--------------------
Rotational spectrum 
--------------------
 
Rotational constants in cm-1:             4.433852             4.433663             3.877020 
Rotational constants in MHz :        132923.531817        132917.887099        116230.148699 

Dipole components along the rotational axes: 
x,y,z [a.u.] :     0.000010     0.000009     0.353782 
x,y,z [Debye]:     0.000026     0.000024     0.899242 

 

Dipole moment calculation done in   0.0 sec 

Maximum memory used throughout the entire PROP-calculation: 3.8 MB

--------------------------------
SUGGESTED CITATIONS FOR THIS RUN
--------------------------------

Below you find a list of papers that are relevant to this ORCA run
We neither can nor want to force you to cite these papers, but we appreciate if you do
You receive ORCA, which is the product of decades of hard work by many enthusiastic individuals, for free
The only thing we kindly ask in return is that you cite our papers,
We deeply appreciate it, if you show your appreciation for ORCA by not just citing the generic ORCA reference.

Please note that relegating all ORCA citations to the supporting information does *not* help us.
SI sections are not indexed - citations you put there will not count into any citation statistics
But we need these citations in order to attract the funding resources that allow us to do what we are doing

Therefore, if you are a happy ORCA user, please consider citing a few of the papers listed below in the main body of your paper

In addition to the list printed below, the program has created the file TPhP_ph3_opt.bibtex that contains the list in bibtex format
You can import this file easily into all common literature databanks and citation aid programs

It goes without saying that in many instances, there are alternative algorithms to achieve similar
results as the ones you have gotten from ORCA. It is, of course, also the case that in some instances
ORCA just re-implements algorithms worked out by others. We are fully aware of that and we are also
fully appreciative of our colleagues work. Hence this citation list should not be read as indicating
that the listed papers, which are focused on our own work, are the only ones worth citing. It simply
meant to make it easier for users to cite ORCA specific papers. It is not a substitute for doing your
own literature research and citing the relevant literature in a scientifically appropriate manner.

List of essential papers. We consider these as the minimum necessary citations

  1. Neese, F.
     Software update: the ORCA program system, version 6.0
     WIRES Comput. Molec. Sci. 2025 15(1), e70019
     doi.org/10.1002/wcms.70019

List of papers to cite with high priority. The work reported in these papers was absolutely
necessary for this run to complete.
Our perspective: the developers of density functionals and basis sets usually get cited in chemistry papers
Good! But without the algorithms to do something with them, the functionals or basis sets would not do anything.
Hence, in our opinion, the algorithm design and method developments papers are equally worthy of getting cited

  1. Neese, F.
     An improvement of the resolution of the identity approximation for the formation of the Coulomb matrix
     J. Comp. Chem. 2003 24(14), 1740-1747
     doi.org/10.1002/jcc.10318
  2. Neese, F.; Wennmohs, F.; Hansen, A.; Becker, U.
     Efficient, approximate and parallel Hartree-Fock and hybrid DFT calculations. A 'chain-of-spheres' algorithm for the Hartree-Fock exchange
     Chem. Phys. 2009 356(1-3), 98-109
     doi.org/10.1016/j.chemphys.2008.10.036
  3. Caldeweyher, E.; Bannwarth, C.; Grimme, S.
     Extension of the D3 dispersion coefficient model
     J. Chem. Phys. 2017 147 , 034112
     doi.org/10.1063/1.4993215
  4. Caldeweyher, E.; Ehlert, S.; Hansen, A.; Neugebauer, H.; Spicher, S.; Bannwarth, C.; Grimme, S.
     A generally applicable atomic-charge dependent London dispersion correction
     J. Chem. Phys. 2019 150 , 154122
     doi.org/10.1063/1.5090222
  5. Helmich-Paris, B.; de Souza, B.; Neese, F.; Izsák, R.
     An improved chain of spheres for exchange algorithm
     J. Chem. Phys. 2021 155(10), 104109
     doi.org/10.1063/5.0058766
  6. Neese, F.
     The SHARK Integral Generation and Digestion System
     J. Comp. Chem. 2022 44(3), 381
     doi.org/10.1002/jcc.26942

List of suggested additional citations. These are papers that are important in the 'surrounding' of 
of this run, or papers that preceded the highly important papers. If you like your results we are grateful for a citation.

  1. Izsak, R.; Neese, F.
     An overlap fitted chain of spheres exchange method
     J. Chem. Phys. 2011 135 , 144105
     doi.org/10.1063/1.3646921
  2. Izsak, R.; Hansen, A.; Neese, F.
     The resolution of identity and chain of spheres approximations for the LPNO-CCSD singles Fock term
     Molec. Phys. 2012 110 , 2413-2417
     doi.org/10.1080/00268976.2012.687466
  3. Neese, F.
     The ORCA program system
     WIRES Comput. Molec. Sci. 2012 2(1), 73-78
     doi.org/10.1002/wcms.81
  4. Izsak, R.; Neese, F.; Klopper, W.
     Robust fitting techniques in the chain of spheres approximation to the Fock exchange: The role of the complementary space
     J. Chem. Phys. 2013 139 , 
     doi.org/10.1063/1.4819264
  5. Neese, F.
     Software update: the ORCA program system, version 4.0
     WIRES Comput. Molec. Sci. 2018 8(1), 1-6
     doi.org/10.1002/wcms.1327
  6. Neese, F.; Wennmohs, F.; Becker, U.; Riplinger, C.
     The ORCA quantum chemistry program package
     J. Chem. Phys. 2020 152(22), 224108
     doi.org/10.1063/5.0004608
  7. Neese, F.
     Software update: The ORCA program system—Version 5.0
     WIRES Comput. Molec. Sci. 2022 12(1), e1606
     doi.org/10.1002/wcms.1606

List of optional additional citations

  1. Neese, F.
     Approximate second-order SCF convergence for spin unrestricted wavefunctions
     Chem. Phys. Lett. 2000 325(1-3), 93-98
     doi.org/10.1016/s0009-2614(00)00662-x

Timings for individual modules:

Sum of individual times          ...       43.346 sec (=   0.722 min)
Startup calculation              ...       12.263 sec (=   0.204 min)  28.3 %
SCF iterations                   ...       22.879 sec (=   0.381 min)  52.8 %
Property calculations            ...        0.753 sec (=   0.013 min)   1.7 %
SCF Gradient evaluation          ...        7.343 sec (=   0.122 min)  16.9 %
Geometry relaxation              ...        0.037 sec (=   0.001 min)   0.1 %
Orbital localization             ...        0.071 sec (=   0.001 min)   0.2 %
                             ****ORCA TERMINATED NORMALLY****
TOTAL RUN TIME: 0 days 0 hours 0 minutes 58 seconds 314 msec
