
                                 *****************
                                 * O   R   C   A *
                                 *****************

                                            #,                                       
                                            ###                                      
                                            ####                                     
                                            #####                                    
                                            ######                                   
                                           ########,                                 
                                     ,,################,,,,,                         
                               ,,#################################,,                 
                          ,,##########################################,,             
                       ,#########################################, ''#####,          
                    ,#############################################,,   '####,        
                  ,##################################################,,,,####,       
                ,###########''''           ''''###############################       
              ,#####''   ,,,,##########,,,,          '''####'''          '####       
            ,##' ,,,,###########################,,,                        '##       
           ' ,,###''''                  '''############,,,                           
         ,,##''                                '''############,,,,        ,,,,,,###''
      ,#''                                            '''#######################'''  
     '                                                          ''''####''''         
             ,#######,   #######,   ,#######,      ##                                
            ,#'     '#,  ##    ##  ,#'     '#,    #''#        ,####,    ,#,          
            ##       ##  ##   ,#'  ##            #'  '#       #'       ,# #          
            ##       ##  #######   ##           ,######,      #####,      #          
            '#,     ,#'  ##    ##  '#,     ,#' ,#      #,     #,   #      #          
             '#######'   ##     ##  '#######'  #'      '#     '####' #    #          



                #########################################################
                #                        -***-                          #
                #          Department of theory and spectroscopy        #
                #                                                       #
                #                      Frank Neese                      #
                #                                                       #
                #     Directorship, Architecture, Infrastructure        #
                #                    SHARK, DRIVERS                     #
                #        Core code/Algorithms in most modules           #
                #                                                       #
                #        Max Planck Institute fuer Kohlenforschung      #
                #                Kaiser Wilhelm Platz 1                 #
                #                 D-45470 Muelheim/Ruhr                 #
                #                      Germany                          #
                #                                                       #
                #                  All rights reserved                  #
                #                        -***-                          #
                #########################################################


                         Program Version 6.1.1  -  RELEASE   -
                                (GIT: $487d211c$)
                          ($2025-11-21 10:33:24 +0100$)


 With contributions from (in alphabetic order):
[Max-Planck-Institut fuer Kohlenforschung]                               
  Daniel Aravena         : Magnetic Suceptibility                        
  Michael Atanasov       : Ab Initio Ligand Field Theory (pilot matlab implementation)
  Alexander A. Auer      : GIAO ZORA, VPT2 properties, NMR spectrum      
  Ute Becker             : All parallelization in ORCA, NUMFREQ, NUMCALC 
  Giovanni Bistoni       : ED, misc. LED, open-shell LED, HFLD           
  Dmytro Bykov           : pre 5.0 version of the SCF Hessian            
  Marcos Casanova-Páez   : Triplet and SCS-CIS(D). UHF-(DLPNO)-IP/EA/STEOM-CCSD. UHF-CVS-IP/STEOM-CCSD   
  Vijay G. Chilkuri      : MRCI spin determinant printing, contributions to CSF-ICE 
  Pauline Colinet        : FMM embedding                                 
  Dipayan Datta          : RHF DLPNO-CCSD density                        
  Achintya Kumar Dutta   : EOM-CC, STEOM-CC                              
  Nicolas Foglia         : Exact transition moments, OPA infrastructure, MCD improvements    
  Dmitry Ganyushin       : Spin-Orbit,Spin-Spin,Magnetic field MRCI      
  Miquel Garcia-Rates    : C-PCM and meta-GGA Hessian, CCSD/C-PCM, Gaussian charge scheme 
  Tiago L. C. Gouveia    : GS-ROHF, GS-ROCIS                             
  Yang Guo               : DLPNO-NEVPT2, F12-NEVPT2, CIM, IAO-localization        
  Andreas Hansen         : Spin unrestricted coupled pair/coupled cluster methods 
  Ingolf Harden          : AUTO-CI MPn and infrastructure                
  Benjamin Helmich-Paris : MC-RPA, TRAH-(SCF,CASSCF), AVAS, COSX integrals, SCF dyn. polar., MC-PDFT, srDFT 
  Lee Huntington         : MR-EOM, pCC                                   
  Robert Izsak           : Overlap fitted RIJCOSX, COSX-SCS-MP3, EOM     
  Riya Kayal             : Wick's Theorem for AUTO-CI, AUTO-CI UHF-CCSDT 
  Emily Kempfer          : AUTO-CI RHF CISDT and CCSDT, approximate NEVPT4
  Christian Kollmar      : KDIIS, OOCD, Brueckner-CCSD(T), CCSD density, CASPT2, CASPT2-K, improved NEVPT2 
  Axel Koslowski         : Symmetry handling                             
  Simone Kossmann        : meta-GGA functionals, TD-DFT gradient, OOMP2, (MP2 Hessian; deprecated post 5.0) 
  Lucas Lang             : DCDCAS, Hyperfine gauge corrections, ICE-SOC+SSC
  Marvin Lechner         : AUTO-CI (C++ implementation), FIC-MRCC        
  Spencer Leger          : CASSCF response                               
  Dagmar Lenk            : GEPOL surface, SMD, ORCA-2-JSON               
  Dimitrios Liakos       : Extrapolation schemes; Compound Job, Property file
  Dimitrios Manganas     : Further ROCIS development; embedding schemes. LFT, Crystal Embedding 
  Dimitrios Pantazis     : SARC Basis sets                               
  Anastasios Papadopoulos: AUTO-CI, single reference methods and gradients 
  Taras Petrenko         : pre 6.0 DFT Hessian and TD-DFT gradient,  ECA, NRVS 
  Petra Pikulova         : Analytic Raman intensities                    
  Peter Pinski           : DLPNO-MP2, DLPNO-MP2 Gradient                 
  Shashank Vittal Rao    : ES-AILFT, MagRelax                            
  Christoph Reimann      : Effective Core Potentials                     
  Marius Retegan         : Local ZFS, SOC                                
  Christoph Riplinger    : Optimizer, TS searches, QM/MM, DLPNO-CCSD(T), (RO)-DLPNO pert. Triples 
  Michael Roemelt        : Original ROCIS implementation, recursive CI coupling coefficients
  Masaaki Saitow         : Open-shell DLPNO-CCSD energy and density      
  Barbara Sandhoefer     : DKH picture change effects                    
  Yorick L. A. Schmerwitz: GMF and freeze-and-release deltaSCF, NEB S-IDPP initial path                    
  Kantharuban Sivalingam : CASSCF convergence/infrastructure, NEVPT2, NEVPT3, NEVPT4(SD), FIC-MRCI and CEPA variants
  Bernardo de Souza      : ESD, SOC TD-DFT                               
  Georgi L. Stoychev     : AutoAux, RI-MP2 NMR, DLPNO-MP2 response, X2C  
  Van Anh Tran           : RI-MP2 g-tensors                              
  Willem Van den Heuvel  : Paramagnetic NMR                              
  Zikuan Wang            : NOTCH, Electric field optimization            
  Frank Wennmohs         : Technical directorship and infrastructure     
  Hang Xu                : AUTO-CI-Response properties                   
                                                                         
[FACCTs GmbH]                                                            
  Markus Bursch, Nicolas Foglia, Miquel Garcia-Rates, Ingolf Harden, Hagen Neugebauer, Anastasios Papadopoulos, 
  Christoph Riplinger, Bernardo de Souza, Georgi L. Stoychev                                                    
                                                                 
  APM, various basis sets, CI-OPT, improved COSX, DLPNO-Multilevel,           
  DOCKER, DRACO, updates on ESD, Fragmentator, GOAT, IRC, LR-CPCM, L-BFGS, MBIS, meta-GGA TD-DFT gradient, ML-optimized integration grids, 
  MM, NACMEs, nearIR, NEB, NEB-TS, NL-DFT gradient (VV10), 2- and 3-layer-ONIOM, interface openCOSMO-RS, QMMM,   
  Crystal-QMMM, RESP, rigid body optimization, SF, symmetry and pop. for TD-DFT, various functionals, SOLVATOR                                   
                                                                         
[Other institutions]                                                     
  V. Asgeirsson          : NEB                                           
  Christoph Bannwarth    : sTDA-DFT, sTD-DFT, PBEh-3c, B97-3c, D3        
  Giovanni Bistoni       : ETS/NOCV, ADLD/ADEX, COVALED                  
  Martin Brehm           : Molecular dynamics                            
  Ronald Cardenas        : ETS/NOCV                                      
  Martina Colucci        : COVALED                                       
  Sebastian Ehlert       : rSCAN, r2SCAN, r2SCAN-3c, D4, dhf basis sets  
  Marvin Friede          : D4 for Fr, Ra, Ac-Lr                          
  Lars Goerigk           : TD-DFT with DH, B97 family of functionals     
  Stefan Grimme          : VdW corrections, initial TS optimization, DFT functionals, gCP, sTDA/sTD-DF 
  Waldemar Hujo          : DFT-NL                                        
  H. Jonsson             : NEB                                           
  Holger Kruse           : gCP                                           
  Marcel Mueller         : wB97X-3c, vDZP basis set                      
  Hagen Neugebauer       : wr2SCAN, Native XTB                           
  Gianluca Regni         : ADLD/ADEX                                     
  Tobias Risthaus        : pre 6.0 range-separated hybrid DFT and stability analysis
  Lukas Wittmann         : regularized MP2, r2SCAN double-hybrids, wr2SCAN        
                                                                         
We gratefully acknowledge several colleagues who have allowed us to      
interface, adapt or use parts of their codes:                            
  Ed Valeev, F. Pavosevic, A. Kumar             : LibInt (2-el integral package), F12 methods 
  Garnet Chan, S. Sharma, J. Yang, R. Olivares  : DMRG                   
  Ulf Ekstrom                                   : XCFun DFT Library      
  Mihaly Kallay                                 : mrcc  (arbitrary order and MRCC methods)
  Frank Weinhold                                : gennbo (NPA and NBO analysis)           
  Simon Mueller                                 : openCOSMO-RS                            
  Christopher J. Cramer and Donald G. Truhlar   : smd solvation model                     
  S Lehtola, MJT Oliveira, MAL Marques          : LibXC Library                           
  Liviu Ungur et al                             : ANISO software                          


 Your calculation uses the libint2 library for the computation of 2-el integrals
 For citations please refer to: http://libint.valeyev.net

 Your ORCA version has been built with support for libXC version: 7.0.0
 For citations please refer to: https://libxc.gitlab.io

 This ORCA versions uses:
   CBLAS   interface :  Fast vector & matrix operations
   LAPACKE interface :  Fast linear algebra routines
   SCALAPACK package :  Parallel linear algebra routines
   Shared memory     :  Shared parallel matrices
   BLAS/LAPACK       :  OpenBLAS 0.3.29  USE64BITINT DYNAMIC_ARCH NO_AFFINITY Haswell SINGLE_THREADED
        Core in use  :  Haswell
   Copyright (c) 2011-2014, The OpenBLAS Project


  ***********************************
  * Starting time: Fri Jul 10 12:22:15 2026
  * Host name:     ylva-work-pc
  * Process ID:    385366
  * Working dir.:  /home/ylvao/work/projects/TPhP_bsse/orca/opt1_bp86/for_mrchem_init_guess
  ***********************************

Warning: RI is on but no J-basis has been assigned. Assigning Def2/J (nothing to worry about!)
================================================================================

----- Orbital basis set information -----
Your calculation utilizes the basis: x2c-SVPall
   P. Pollak; F. Weigend. J. Chem. Theory Comput., 13, 3696 – 3705, (2017).
   Y. J. Franzke; R. Treß; T. M. Pazedera; F. Weigend.
   Phys. Chem. Chem. Phys. 21, 16658 (2019).

----- AuxJ basis set information -----
Your calculation utilizes the auxiliary basis: def2/J
   H-Rn: F. Weigend, Phys. Chem. Chem. Phys. 8, 1057 (2006).
   Fr-Lr: K. Eichkorn, F. Weigend, O. Treutler, R. Ahlrichs; Theor. Chem. Acc. 97, 119 (1997).

================================================================================
                                        WARNINGS
                       Please study these warnings very carefully!
================================================================================

WARNING: The globally-selected AuxJ basis set is optimized for use with ECPs
         Make sure a suitable alternative is explicitly given all heavy elements (Z>36)

================================================================================
                                       INPUT FILE
================================================================================
NAME = 15h_x2csvp.inp
|  1> ! BP86 X2C-SVPall VeryTightSCF defgrid3
|  2> 
|  3> %loc
|  4>   LocMet NEWBOYS
|  5>   Occ true
|  6> end
|  7> 
|  8> *xyz 0 1
|  9>   Ru         -0.00925004775463     -0.25536936277321     -0.18825278681969
| 10>   P          -2.28746525779038     -0.03663875983905     -0.11703056887638
| 11>   P           2.27352104051140     -0.06830618284926     -0.08987424438066
| 12>   C          -2.95694403329638     -0.56589388803592      1.51166183203681
| 13>   C          -4.68588002631837     -2.65522342081126     -3.10800690267257
| 14>   C          -3.80429316837499     -3.22819478832069     -2.18599586412859
| 15>   C          -3.10436431259569     -2.41792058145074     -1.29607166149743
| 16>   C          -2.99847462219471      1.64290792078062     -0.29732141253688
| 17>   C          -2.23385390083417      2.64917097877968     -0.89478195778610
| 18>   C          -2.76830796604987      3.92698741816221     -1.07445013172761
| 19>   C          -4.06643234864214      4.20901696201014     -0.64889027413227
| 20>   C          -4.83176030962395      3.21044174182241     -0.04030731663076
| 21>   C          -4.29972833148420      1.93379203475753      0.13445813244788
| 22>   C           2.99491750875301      1.59111204001732     -0.38021386514532
| 23>   C          -2.21051644255673     -0.21407730749035      2.64586108236492
| 24>   C           2.37967658113588      2.43970612448855     -1.30719427688353
| 25>   C           2.92777172643227      3.69103260050782     -1.59053790210380
| 26>   C           4.08976402505571      4.10982886483225     -0.93960158536038
| 27>   C           4.70271791757583      3.27216720930878     -0.00582852741145
| 28>   C           4.15884700050561      2.01697745342086      0.27127570517234
| 29>   C           3.31976765096714     -1.14242351397956     -1.15247015611903
| 30>   C           2.99592077218013     -2.50551127759317     -1.21249805943498
| 31>   C           3.75318693304898     -3.38324175348832     -1.98496482711764
| 32>   C           4.83714731127259     -2.90417476363681     -2.72608274499744
| 33>   C           5.15764292152911     -1.54804022712270     -2.68341408715564
| 34>   C          -2.64432555630812     -0.57745835685807      3.92039352144551
| 35>   C           4.40548547649142     -0.67050322186508     -1.89707926270940
| 36>   C           2.89245257728965     -0.46936486279866      1.59483798518449
| 37>   C           2.20758734445452      0.10130465561008      2.67880710165029
| 38>   C           2.61228847035378     -0.15837970188818      3.98733524808428
| 39>   C           3.70296383619983     -0.99720472000655      4.22925016418195
| 40>   C           4.38740598136241     -1.56931158792676      3.15661374661631
| 41>   C           3.98586899012409     -1.30633116225817      1.84448154354112
| 42>   C          -3.82889292060837     -1.30062111529284      4.07551930087801
| 43>   C          -4.57603645685308     -1.65638367945022      2.95165076660308
| 44>   C          -4.14267454720824     -1.29182530235421      1.67508057706404
| 45>   C          -3.28771063935641     -1.02679901373114     -1.29745485201502
| 46>   C          -4.16794058720015     -0.46111044649408     -2.22429169263643
| 47>   C          -4.86115631793298     -1.27295527595040     -3.12773846958253
| 48>   H          -1.20991149009259      2.42159095646420     -1.19918772631452
| 49>   H          -2.16192721334001      4.70834085853446     -1.54165989492825
| 50>   H          -4.48288863246924      5.21164649636179     -0.78416457524854
| 51>   H          -5.84695372240125      3.42922560047627      0.30327393917855
| 52>   H          -4.90262492728677      1.15835429674455      0.61500041668560
| 53>   H          -2.40623162946576     -2.86943335648449     -0.58427857125151
| 54>   H          -3.65737821690662     -4.31201742786721     -2.16707479342193
| 55>   H          -5.23133392712212     -3.28901416320762     -3.81322464664498
| 56>   H          -5.54329988582764     -0.81658302232318     -3.85092763442358
| 57>   H          -4.31588612463561      0.62083858413486     -2.24935320858425
| 58>   H          -4.73263768617876     -1.57995437424440      0.80109696835359
| 59>   H          -1.28458599740284      0.35583855227449      2.51790014519603
| 60>   H          -2.05280865632817     -0.29745775090676      4.79687564548462
| 61>   H          -4.16896356970783     -1.58970132294633      5.07423354951906
| 62>   H          -5.50403264935004     -2.22394123709266      3.06760212173425
| 63>   H           4.64436625084629      1.36640076598571      1.00366645935336
| 64>   H           5.60938188448777      3.59803475873697      0.51221082985407
| 65>   H           4.51580729111323      5.09401220764028     -1.15581412249854
| 66>   H           2.43960374945311      4.34640010036442     -2.31770376201266
| 67>   H           1.45880981772429      2.11152052679666     -1.79532527345965
| 68>   H           2.14014692322358     -2.88028865666619     -0.64323717470634
| 69>   H           4.66921520912483      0.38914299861227     -1.87001242348478
| 70>   H           6.00065144030798     -1.16505166724214     -3.26586991272061
| 71>   H           3.49242154786639     -4.44512314954162     -2.01647299512800
| 72>   H           5.42813238343469     -3.58957667620333     -3.34054600566663
| 73>   H           4.53161980236671     -1.75729766541695      1.01207465358882
| 74>   H           1.35617610851651      0.75993782615411      2.48184588770295
| 75>   H           2.07256648010496      0.29531945964719      4.82375193652039
| 76>   H           4.01916421243715     -1.20498208662908      5.25565959014262
| 77>   H           5.24310874311027     -2.22582257597751      3.33959534953812
| 78>   H          -0.06889236630291     -1.89070629596966     -0.78406801540654
| 79>   H          -0.00404706649099     -1.35374399510523     -1.49081610496843
| 80>   H          -0.01446580762212      0.53784207698531     -1.52164479141234
| 81>   H           0.01480645255371      1.17573762767796      0.60021686202054
| 82> **                         ****END OF INPUT****
================================================================================

                       ****************************
                       * Single Point Calculation *
                       ****************************

---------------------------------
CARTESIAN COORDINATES (ANGSTROEM)
---------------------------------
  Ru    -0.009250   -0.255369   -0.188253
  P     -2.287465   -0.036639   -0.117031
  P      2.273521   -0.068306   -0.089874
  C     -2.956944   -0.565894    1.511662
  C     -4.685880   -2.655223   -3.108007
  C     -3.804293   -3.228195   -2.185996
  C     -3.104364   -2.417921   -1.296072
  C     -2.998475    1.642908   -0.297321
  C     -2.233854    2.649171   -0.894782
  C     -2.768308    3.926987   -1.074450
  C     -4.066432    4.209017   -0.648890
  C     -4.831760    3.210442   -0.040307
  C     -4.299728    1.933792    0.134458
  C      2.994918    1.591112   -0.380214
  C     -2.210516   -0.214077    2.645861
  C      2.379677    2.439706   -1.307194
  C      2.927772    3.691033   -1.590538
  C      4.089764    4.109829   -0.939602
  C      4.702718    3.272167   -0.005829
  C      4.158847    2.016977    0.271276
  C      3.319768   -1.142424   -1.152470
  C      2.995921   -2.505511   -1.212498
  C      3.753187   -3.383242   -1.984965
  C      4.837147   -2.904175   -2.726083
  C      5.157643   -1.548040   -2.683414
  C     -2.644326   -0.577458    3.920394
  C      4.405485   -0.670503   -1.897079
  C      2.892453   -0.469365    1.594838
  C      2.207587    0.101305    2.678807
  C      2.612288   -0.158380    3.987335
  C      3.702964   -0.997205    4.229250
  C      4.387406   -1.569312    3.156614
  C      3.985869   -1.306331    1.844482
  C     -3.828893   -1.300621    4.075519
  C     -4.576036   -1.656384    2.951651
  C     -4.142675   -1.291825    1.675081
  C     -3.287711   -1.026799   -1.297455
  C     -4.167941   -0.461110   -2.224292
  C     -4.861156   -1.272955   -3.127738
  H     -1.209911    2.421591   -1.199188
  H     -2.161927    4.708341   -1.541660
  H     -4.482889    5.211646   -0.784165
  H     -5.846954    3.429226    0.303274
  H     -4.902625    1.158354    0.615000
  H     -2.406232   -2.869433   -0.584279
  H     -3.657378   -4.312017   -2.167075
  H     -5.231334   -3.289014   -3.813225
  H     -5.543300   -0.816583   -3.850928
  H     -4.315886    0.620839   -2.249353
  H     -4.732638   -1.579954    0.801097
  H     -1.284586    0.355839    2.517900
  H     -2.052809   -0.297458    4.796876
  H     -4.168964   -1.589701    5.074234
  H     -5.504033   -2.223941    3.067602
  H      4.644366    1.366401    1.003666
  H      5.609382    3.598035    0.512211
  H      4.515807    5.094012   -1.155814
  H      2.439604    4.346400   -2.317704
  H      1.458810    2.111521   -1.795325
  H      2.140147   -2.880289   -0.643237
  H      4.669215    0.389143   -1.870012
  H      6.000651   -1.165052   -3.265870
  H      3.492422   -4.445123   -2.016473
  H      5.428132   -3.589577   -3.340546
  H      4.531620   -1.757298    1.012075
  H      1.356176    0.759938    2.481846
  H      2.072566    0.295319    4.823752
  H      4.019164   -1.204982    5.255660
  H      5.243109   -2.225823    3.339595
  H     -0.068892   -1.890706   -0.784068
  H     -0.004047   -1.353744   -1.490816
  H     -0.014466    0.537842   -1.521645
  H      0.014806    1.175738    0.600217

----------------------------
CARTESIAN COORDINATES (A.U.)
----------------------------
  NO LB      ZA    FRAG     MASS         X           Y           Z
   0 Ru   44.0000    0   101.070   -0.017480   -0.482578   -0.355746
   1 P    15.0000    0    30.974   -4.322683   -0.069237   -0.221156
   2 P    15.0000    0    30.974    4.296332   -0.129080   -0.169838
   3 C     6.0000    0    12.011   -5.587814   -1.069384    2.856627
   4 C     6.0000    0    12.011   -8.855030   -5.017645   -5.873282
   5 C     6.0000    0    12.011   -7.189072   -6.100404   -4.130934
   6 C     6.0000    0    12.011   -5.866398   -4.569208   -2.449220
   7 C     6.0000    0    12.011   -5.666296    3.104646   -0.561856
   8 C     6.0000    0    12.011   -4.221372    5.006208   -1.690893
   9 C     6.0000    0    12.011   -5.231344    7.420931   -2.030416
  10 C     6.0000    0    12.011   -7.684443    7.953889   -1.226225
  11 C     6.0000    0    12.011   -9.130704    6.066856   -0.076170
  12 C     6.0000    0    12.011   -8.125309    3.654337    0.254089
  13 C     6.0000    0    12.011    5.659574    3.006766   -0.718500
  14 C     6.0000    0    12.011   -4.177271   -0.404547    4.999953
  15 C     6.0000    0    12.011    4.496937    4.610376   -2.470239
  16 C     6.0000    0    12.011    5.532687    6.975041   -3.005681
  17 C     6.0000    0    12.011    7.728534    7.766451   -1.775590
  18 C     6.0000    0    12.011    8.886849    6.183500   -0.011014
  19 C     6.0000    0    12.011    7.859082    3.811535    0.512637
  20 C     6.0000    0    12.011    6.273452   -2.158868   -2.177853
  21 C     6.0000    0    12.011    5.661470   -4.734730   -2.291289
  22 C     6.0000    0    12.011    7.092495   -6.393400   -3.751040
  23 C     6.0000    0    12.011    9.140884   -5.488095   -5.151550
  24 C     6.0000    0    12.011    9.746533   -2.925372   -5.070918
  25 C     6.0000    0    12.011   -4.997051   -1.091238    7.408470
  26 C     6.0000    0    12.011    8.325161   -1.267067   -3.584960
  27 C     6.0000    0    12.011    5.465943   -0.886971    3.013807
  28 C     6.0000    0    12.011    4.171735    0.191438    5.062212
  29 C     6.0000    0    12.011    4.936510   -0.299294    7.534972
  30 C     6.0000    0    12.011    6.997588   -1.884444    7.992125
  31 C     6.0000    0    12.011    8.290996   -2.965569    5.965135
  32 C     6.0000    0    12.011    7.532201   -2.468608    3.485565
  33 C     6.0000    0    12.011   -7.235559   -2.457818    7.701615
  34 C     6.0000    0    12.011   -8.647456   -3.130112    5.577812
  35 C     6.0000    0    12.011   -7.828520   -2.441196    3.165444
  36 C     6.0000    0    12.011   -6.212873   -1.940369   -2.451834
  37 C     6.0000    0    12.011   -7.876266   -0.871372   -4.203302
  38 C     6.0000    0    12.011   -9.186254   -2.405537   -5.910569
  39 H     1.0000    0     1.008   -2.286401    4.576144   -2.266136
  40 H     1.0000    0     1.008   -4.085450    8.897475   -2.913315
  41 H     1.0000    0     1.008   -8.471432    9.848585   -1.481856
  42 H     1.0000    0     1.008  -11.049141    6.480297    0.573105
  43 H     1.0000    0     1.008   -9.264618    2.188972    1.162182
  44 H     1.0000    0     1.008   -4.547119   -5.422443   -1.104126
  45 H     1.0000    0     1.008   -6.911443   -8.148532   -4.095178
  46 H     1.0000    0     1.008   -9.885788   -6.215336   -7.205950
  47 H     1.0000    0     1.008  -10.475319   -1.543118   -7.277199
  48 H     1.0000    0     1.008   -8.155843    1.173215   -4.250662
  49 H     1.0000    0     1.008   -8.943389   -2.985681    1.513854
  50 H     1.0000    0     1.008   -2.427516    0.672437    4.758142
  51 H     1.0000    0     1.008   -3.879246   -0.562114    9.064781
  52 H     1.0000    0     1.008   -7.878199   -3.004100    9.588912
  53 H     1.0000    0     1.008  -10.401114   -4.202640    5.796928
  54 H     1.0000    0     1.008    8.776580    2.582123    1.896655
  55 H     1.0000    0     1.008   10.600196    6.799300    0.967938
  56 H     1.0000    0     1.008    8.533639    9.626288   -2.184172
  57 H     1.0000    0     1.008    4.610183    8.213506   -4.379825
  58 H     1.0000    0     1.008    2.756751    3.990196   -3.392673
  59 H     1.0000    0     1.008    4.044292   -5.442957   -1.215542
  60 H     1.0000    0     1.008    8.823538    0.735374   -3.533811
  61 H     1.0000    0     1.008   11.339588   -2.201629   -6.171600
  62 H     1.0000    0     1.008    6.599720   -8.400065   -3.810582
  63 H     1.0000    0     1.008   10.257684   -6.783317   -6.312717
  64 H     1.0000    0     1.008    8.563520   -3.320811    1.912544
  65 H     1.0000    0     1.008    2.562801    1.436074    4.690009
  66 H     1.0000    0     1.008    3.916583    0.558073    9.115570
  67 H     1.0000    0     1.008    7.595120   -2.277086    9.931757
  68 H     1.0000    0     1.008    9.908040   -4.206195    6.310921
  69 H     1.0000    0     1.008   -0.130188   -3.572917   -1.481674
  70 H     1.0000    0     1.008   -0.007648   -2.558205   -2.817234
  71 H     1.0000    0     1.008   -0.027336    1.016374   -2.875492
  72 H     1.0000    0     1.008    0.027980    2.221822    1.134245

--------------------------------
INTERNAL COORDINATES (ANGSTROEM)
--------------------------------
 Ru     0   0   0     0.000000000000     0.00000000     0.00000000
 P      1   0   0     2.289799166789     0.00000000     0.00000000
 P      1   2   0     2.292534582579   168.98421915     0.00000000
 C      2   1   3     1.838736457018   111.24219099   272.44986198
 C      2   1   3     4.642770558395   116.10790885   155.47541185
 C      5   2   1     1.398426233765    58.71306618    57.05574078
 C      6   5   2     1.392267854940   119.99361705     0.37037397
 C      2   1   3     1.832734611710   118.06462740    29.97699379
 C      8   2   1     1.397916053473   119.30840243    20.85873310
 C      9   8   2     1.396687743667   120.28108353   178.30603337
 C     10   9   8     1.394908157794   120.12180598     0.48175609
 C     11  10   9     1.397588127595   119.86767156     0.07825453
 C     12  11  10     1.394071541387   119.99464072   359.68824182
 C      3   1   2     1.832588005570   117.32647106   325.86722496
 C      4   2   1     1.402617907346   116.76292633    39.35299026
 C     14   3   1     1.399259090719   118.75244986   324.94466271
 C     16  14   3     1.395173769764   120.38052826   182.34025332
 C     17  16  14     1.396185697365   120.08609244   359.40262996
 C     18  17  16     1.396181093999   119.81692472     0.09150337
 C     19  18  17     1.395737673575   120.08347614     0.30911106
 C      3   1   2     1.837789455451   119.62820700   201.09075804
 C     21   3   1     1.402315371587   117.47688465   314.36089868
 C     22  21   3     1.393042617398   120.70740154   180.72890075
 C     23  22  21     1.397759296348   119.97535711   359.06887165
 C     24  23  22     1.394144516068   119.69904182     0.24497982
 C     15   4   2     1.394513919788   120.54057553   180.11178981
 C     25  24  23     1.397903599630   120.27559947     0.41544504
 C      3   1   2     1.839070310898   110.89331798    82.63733012
 C     28   3   1     1.403457563248   117.04096496   314.35337873
 C     29  28   3     1.394082091142   120.50094560   179.75955819
 C     30  29  28     1.397040798014   120.06745265   359.68827635
 C     31  30  29     1.395104369818   119.74255893     0.22739937
 C     32  31  30     1.397169130050   120.25695676     0.00000000
 C     26  15   4     1.396505718999   120.02205960     0.16919968
 C     34  26  15     1.395661473331   119.77792818   359.93972569
 C     35  34  26     1.396544594298   120.22651151     0.00000000
 C      7   6   5     1.403152523758   120.70857071     0.99347970
 C     37   7   6     1.397796424848   118.95802110   358.85114590
 C      5   2   1     1.393476349793    60.96288936   236.52326625
 H      9   8   2     1.092205840941   118.81050611   357.18604898
 H     10   9   8     1.093844494829   119.75807847   179.91424078
 H     11  10   9     1.094075388644   120.11922418   179.62919479
 H     12  11  10     1.093861107041   120.13848645   179.44588458
 H     13  12  11     1.093484740500   119.60956647   179.75641107
 H      7   6   5     1.094487292112   119.75396628   180.74305268
 H      6   5   2     1.093898315144   120.13394668   180.82628679
 H      5   2   1     1.093865955894   178.64521616    25.17121406
 H     39   5   2     1.093891241963   120.10883993   179.01856549
 H     38  37   7     1.092304749833   120.09062121   180.70628590
 H     36  35  34     1.093124977167   119.64073199   179.68493278
 H     15   4   2     1.094771792620   119.08813258     0.48915274
 H     26  15   4     1.093852593385   119.82909733   179.96707789
 H     34  26  15     1.093912959643   120.12944969   179.77967112
 H     35  34  26     1.093957600313   120.06722122   179.92306293
 H     20  19  18     1.093332147838   119.67465763   179.99590860
 H     19  18  17     1.093889383961   120.12456854   180.42416024
 H     18  17  16     1.094019002591   120.11978531   180.46106708
 H     17  16  14     1.093885150020   119.80399336   179.93061122
 H     16  14   3     1.092690831071   118.96971650     3.05072490
 H     22  21   3     1.094013217153   119.43009141     0.57792857
 H     27  25  24     1.092307693936   119.53856869   179.80208848
 H     25  24  23     1.093891397017   120.09507779   180.39193854
 H     23  22  21     1.093884568885   119.86992044   179.58280324
 H     24  23  22     1.093894069817   120.13597764   180.54411890
 H     33  32  31     1.092756133122   119.61554591   179.79266486
 H     29  28   3     1.094299988953   119.03803789   359.25543562
 H     30  29  28     1.093954127297   119.81359863   179.77627591
 H     31  30  29     1.093924321749   120.14452831   180.24130924
 H     32  31  30     1.093945227560   120.08313103   179.91144295
 H      1   2   8     1.741516545386    93.79961859   207.29775076
 H     70   1   2     0.889958587552    72.70015975    93.56676227
 H      1   2   8     1.551497931106    88.54164949   307.94249797
 H      1   2   8     1.634114537132    85.18044911    36.16620798

---------------------------
INTERNAL COORDINATES (A.U.)
---------------------------
 Ru     0   0   0     0.000000000000     0.00000000     0.00000000
 P      1   0   0     4.327093326912     0.00000000     0.00000000
 P      1   2   0     4.332262513617   168.98421915     0.00000000
 C      2   1   3     3.474708336221   111.24219099   272.44986198
 C      2   1   3     8.773564858000   116.10790885   155.47541185
 C      5   2   1     2.642642600306    58.71306618    57.05574078
 C      6   5   2     2.631004950899   119.99361705     0.37037397
 C      2   1   3     3.463366492290   118.06462740    29.97699379
 C      8   2   1     2.641678499276   119.30840243    20.85873310
 C      9   8   2     2.639357330135   120.28108353   178.30603337
 C     10   9   8     2.635994400203   120.12180598     0.48175609
 C     11  10   9     2.641058809175   119.86767156     0.07825453
 C     12  11  10     2.634413424314   119.99464072   359.68824182
 C      3   1   2     3.463089446836   117.32647106   325.86722496
 C      4   2   1     2.650563715419   116.76292633    39.35299026
 C     14   3   1     2.644216471859   118.75244986   324.94466271
 C     16  14   3     2.636496334084   120.38052826   182.34025332
 C     17  16  14     2.638408600119   120.08609244   359.40262996
 C     18  17  16     2.638399901017   119.81692472     0.09150337
 C     19  18  17     2.637561957853   120.08347614     0.30911106
 C      3   1   2     3.472918762611   119.62820700   201.09075804
 C     21   3   1     2.649992005688   117.47688465   314.36089868
 C     22  21   3     2.632469039763   120.70740154   180.72890075
 C     23  22  21     2.641382271240   119.97535711   359.06887165
 C     24  23  22     2.634551326476   119.69904182     0.24497982
 C     15   4   2     2.635249398340   120.54057553   180.11178981
 C     25  24  23     2.641654964924   120.27559947     0.41544504
 C      3   1   2     3.475339228623   110.89331798    82.63733012
 C     28   3   1     2.652150435120   117.04096496   314.35337873
 C     29  28   3     2.634433360463   120.50094560   179.75955819
 C     30  29  28     2.640024506161   120.06745265   359.68827635
 C     31  30  29     2.636365187192   119.74255893     0.22739937
 C     32  31  30     2.640267018563   120.25695676     0.00000000
 C     26  15   4     2.639013353363   120.02205960     0.16919968
 C     34  26  15     2.637417960261   119.77792818   359.93972569
 C     35  34  26     2.639086817030   120.22651151     0.00000000
 C      7   6   5     2.651573994022   120.70857071     0.99347970
 C     37   7   6     2.641452433936   118.95802110   358.85114590
 C      5   2   1     2.633288675205    60.96288936   236.52326625
 H      9   8   2     2.063969921248   118.81050611   357.18604898
 H     10   9   8     2.067066528325   119.75807847   179.91424078
 H     11  10   9     2.067502854400   120.11922418   179.62919479
 H     12  11  10     2.067097920856   120.13848645   179.44588458
 H     13  12  11     2.066386691166   119.60956647   179.75641107
 H      7   6   5     2.068281239149   119.75396628   180.74305268
 H      6   5   2     2.067168233980   120.13394668   180.82628679
 H      5   2   1     2.067107083859   178.64521616    25.17121406
 H     39   5   2     2.067154867606   120.10883993   179.01856549
 H     38  37   7     2.064156831966   120.09062121   180.70628590
 H     36  35  34     2.065706836995   119.64073199   179.68493278
 H     15   4   2     2.068818867193   119.08813258     0.48915274
 H     26  15   4     2.067081832377   119.82909733   179.96707789
 H     34  26  15     2.067195908072   120.12944969   179.77967112
 H     35  34  26     2.067280266713   120.06722122   179.92306293
 H     20  19  18     2.066098332825   119.67465763   179.99590860
 H     19  18  17     2.067151356490   120.12456854   180.42416024
 H     18  17  16     2.067396300202   120.11978531   180.46106708
 H     17  16  14     2.067143355500   119.80399336   179.93061122
 H     16  14   3     2.064886419771   118.96971650     3.05072490
 H     22  21   3     2.067385367309   119.43009141     0.57792857
 H     27  25  24     2.064162395515   119.53856869   179.80208848
 H     25  24  23     2.067155160615   120.09507779   180.39193854
 H     23  22  21     2.067142257315   119.86992044   179.58280324
 H     24  23  22     2.067160211474   120.13597764   180.54411890
 H     33  32  31     2.065009822763   119.61554591   179.79266486
 H     29  28   3     2.067927287474   119.03803789   359.25543562
 H     30  29  28     2.067273703664   119.81359863   179.77627591
 H     31  30  29     2.067217379341   120.14452831   180.24130924
 H     32  31  30     2.067256885599   120.08313103   179.91144295
 H      1   2   8     3.290989328473    93.79961859   207.29775076
 H     70   1   2     1.681778001004    72.70015975    93.56676227
 H      1   2   8     2.931906187136    88.54164949   307.94249797
 H      1   2   8     3.088028946640    85.18044911    36.16620798

---------------------
BASIS SET INFORMATION
---------------------
There are 4 groups of distinct atoms

 Group   1 Type Ru  : 18s14p10d1f contracted to 6s5p5d1f pattern {733311/63311/52111/1}
 Group   2 Type P   : 10s7p1d contracted to 4s3p1d pattern {5311/511/1}
 Group   3 Type C   : 7s4p1d contracted to 3s2p1d pattern {511/31/1}
 Group   4 Type H   : 4s1p contracted to 2s1p pattern {31/1}

Atom   0Ru   basis set group =>   1
Atom   1P    basis set group =>   2
Atom   2P    basis set group =>   2
Atom   3C    basis set group =>   3
Atom   4C    basis set group =>   3
Atom   5C    basis set group =>   3
Atom   6C    basis set group =>   3
Atom   7C    basis set group =>   3
Atom   8C    basis set group =>   3
Atom   9C    basis set group =>   3
Atom  10C    basis set group =>   3
Atom  11C    basis set group =>   3
Atom  12C    basis set group =>   3
Atom  13C    basis set group =>   3
Atom  14C    basis set group =>   3
Atom  15C    basis set group =>   3
Atom  16C    basis set group =>   3
Atom  17C    basis set group =>   3
Atom  18C    basis set group =>   3
Atom  19C    basis set group =>   3
Atom  20C    basis set group =>   3
Atom  21C    basis set group =>   3
Atom  22C    basis set group =>   3
Atom  23C    basis set group =>   3
Atom  24C    basis set group =>   3
Atom  25C    basis set group =>   3
Atom  26C    basis set group =>   3
Atom  27C    basis set group =>   3
Atom  28C    basis set group =>   3
Atom  29C    basis set group =>   3
Atom  30C    basis set group =>   3
Atom  31C    basis set group =>   3
Atom  32C    basis set group =>   3
Atom  33C    basis set group =>   3
Atom  34C    basis set group =>   3
Atom  35C    basis set group =>   3
Atom  36C    basis set group =>   3
Atom  37C    basis set group =>   3
Atom  38C    basis set group =>   3
Atom  39H    basis set group =>   4
Atom  40H    basis set group =>   4
Atom  41H    basis set group =>   4
Atom  42H    basis set group =>   4
Atom  43H    basis set group =>   4
Atom  44H    basis set group =>   4
Atom  45H    basis set group =>   4
Atom  46H    basis set group =>   4
Atom  47H    basis set group =>   4
Atom  48H    basis set group =>   4
Atom  49H    basis set group =>   4
Atom  50H    basis set group =>   4
Atom  51H    basis set group =>   4
Atom  52H    basis set group =>   4
Atom  53H    basis set group =>   4
Atom  54H    basis set group =>   4
Atom  55H    basis set group =>   4
Atom  56H    basis set group =>   4
Atom  57H    basis set group =>   4
Atom  58H    basis set group =>   4
Atom  59H    basis set group =>   4
Atom  60H    basis set group =>   4
Atom  61H    basis set group =>   4
Atom  62H    basis set group =>   4
Atom  63H    basis set group =>   4
Atom  64H    basis set group =>   4
Atom  65H    basis set group =>   4
Atom  66H    basis set group =>   4
Atom  67H    basis set group =>   4
Atom  68H    basis set group =>   4
Atom  69H    basis set group =>   4
Atom  70H    basis set group =>   4
Atom  71H    basis set group =>   4
Atom  72H    basis set group =>   4
---------------------------------
AUXILIARY/J BASIS SET INFORMATION
---------------------------------
There are 4 groups of distinct atoms

 Group   1 Type Ru  : 11s5p5d3f3g contracted to 8s5p5d2f3g pattern {41111111/11111/11111/21/111}
 Group   2 Type P   : 14s5p5d2f1g contracted to 8s4p3d1f1g pattern {71111111/2111/311/2/1}
 Group   3 Type C   : 12s5p4d2f1g contracted to 6s4p3d1f1g pattern {711111/2111/211/2/1}
 Group   4 Type H   : 5s2p1d contracted to 3s1p1d pattern {311/2/1}

Atom   0Ru   basis set group =>   1
Atom   1P    basis set group =>   2
Atom   2P    basis set group =>   2
Atom   3C    basis set group =>   3
Atom   4C    basis set group =>   3
Atom   5C    basis set group =>   3
Atom   6C    basis set group =>   3
Atom   7C    basis set group =>   3
Atom   8C    basis set group =>   3
Atom   9C    basis set group =>   3
Atom  10C    basis set group =>   3
Atom  11C    basis set group =>   3
Atom  12C    basis set group =>   3
Atom  13C    basis set group =>   3
Atom  14C    basis set group =>   3
Atom  15C    basis set group =>   3
Atom  16C    basis set group =>   3
Atom  17C    basis set group =>   3
Atom  18C    basis set group =>   3
Atom  19C    basis set group =>   3
Atom  20C    basis set group =>   3
Atom  21C    basis set group =>   3
Atom  22C    basis set group =>   3
Atom  23C    basis set group =>   3
Atom  24C    basis set group =>   3
Atom  25C    basis set group =>   3
Atom  26C    basis set group =>   3
Atom  27C    basis set group =>   3
Atom  28C    basis set group =>   3
Atom  29C    basis set group =>   3
Atom  30C    basis set group =>   3
Atom  31C    basis set group =>   3
Atom  32C    basis set group =>   3
Atom  33C    basis set group =>   3
Atom  34C    basis set group =>   3
Atom  35C    basis set group =>   3
Atom  36C    basis set group =>   3
Atom  37C    basis set group =>   3
Atom  38C    basis set group =>   3
Atom  39H    basis set group =>   4
Atom  40H    basis set group =>   4
Atom  41H    basis set group =>   4
Atom  42H    basis set group =>   4
Atom  43H    basis set group =>   4
Atom  44H    basis set group =>   4
Atom  45H    basis set group =>   4
Atom  46H    basis set group =>   4
Atom  47H    basis set group =>   4
Atom  48H    basis set group =>   4
Atom  49H    basis set group =>   4
Atom  50H    basis set group =>   4
Atom  51H    basis set group =>   4
Atom  52H    basis set group =>   4
Atom  53H    basis set group =>   4
Atom  54H    basis set group =>   4
Atom  55H    basis set group =>   4
Atom  56H    basis set group =>   4
Atom  57H    basis set group =>   4
Atom  58H    basis set group =>   4
Atom  59H    basis set group =>   4
Atom  60H    basis set group =>   4
Atom  61H    basis set group =>   4
Atom  62H    basis set group =>   4
Atom  63H    basis set group =>   4
Atom  64H    basis set group =>   4
Atom  65H    basis set group =>   4
Atom  66H    basis set group =>   4
Atom  67H    basis set group =>   4
Atom  68H    basis set group =>   4
Atom  69H    basis set group =>   4
Atom  70H    basis set group =>   4
Atom  71H    basis set group =>   4
Atom  72H    basis set group =>   4
------------------------------------------------------------------------------
                             ORCA STARTUP CALCULATIONS
                           -- RI-GTO INTEGRALS CHOSEN --
------------------------------------------------------------------------------
------------------------------------------------------------------------------
                   ___                                                        
                  /   \      - P O W E R E D   B Y -                         
                 /     \                                                     
                 |  |  |   _    _      __       _____    __    __             
                 |  |  |  | |  | |    /  \     |  _  \  |  |  /  |          
                  \  \/   | |  | |   /    \    | | | |  |  | /  /          
                 / \  \   | |__| |  /  /\  \   | |_| |  |  |/  /          
                |  |  |   |  __  | /  /__\  \  |    /   |      \           
                |  |  |   | |  | | |   __   |  |    \   |  |\   \          
                \     /   | |  | | |  |  |  |  | |\  \  |  | \   \       
                 \___/    |_|  |_| |__|  |__|  |_| \__\ |__|  \__/        
                                                                              
                      - O R C A' S   B I G   F R I E N D -                    
                                      &                                       
                       - I N T E G R A L  F E E D E R -                       
                                                                              
 v1 FN, 2020, v2 2021, v3 2022-2024                                           
------------------------------------------------------------------------------


----------------------
SHARK INTEGRAL PACKAGE
----------------------

Number of atoms                             ...     73
Number of basis functions                   ...    763
Number of shells                            ...    351
Maximum angular momentum                    ...      3
Integral batch strategy                     ... SHARK/LIBINT Hybrid
RI-J (if used) integral strategy            ... SPLIT-RIJ (Revised 2003 algorithm where possible)
Printlevel                                  ...      1
Contraction scheme used                     ... SEGMENTED contraction
Prescreening option                         ... SCHWARTZ
   Thresh                                   ... 1.000e-12
   Tcut                                     ... 1.000e-14
   Tpresel                                  ... 1.000e-14 
Coulomb Range Separation                    ... NOT USED
Exchange Range Separation                   ... NOT USED
Multipole approximations                    ... NOT USED
Finite Nucleus Model                        ... NOT USED
CABS basis                                  ... NOT available
Auxiliary Coulomb fitting basis             ... AVAILABLE
   # of basis functions in Aux-J            ...   2329
   # of shells in Aux-J                     ...    767
   Maximum angular momentum in Aux-J        ...      4
Auxiliary J/K fitting basis                 ... NOT available
Auxiliary Correlation fitting basis         ... NOT available
Auxiliary 'external' fitting basis          ... NOT available

Checking pre-screening integrals            ... done (  0.0 sec) Dimension = 351
   => SHARK Basis and OBASIS are compatible. Storing Pre-screening
Shell pair information
Shell pair cut-off parameter TPreSel        ...   1.0e-14
Total number of shell pairs                 ...     61776
Shell pairs after pre-screening             ...     39610
Total number of primitive shell pairs       ...    232899
Primitive shell pairs kept                  ...     88845
          la=0 lb=0:  12156 shell pairs
          la=1 lb=0:  14667 shell pairs
          la=1 lb=1:   4529 shell pairs
          la=2 lb=0:   4755 shell pairs
          la=2 lb=1:   2816 shell pairs
          la=2 lb=2:    427 shell pairs
          la=3 lb=0:    145 shell pairs
          la=3 lb=1:     85 shell pairs
          la=3 lb=2:     29 shell pairs
          la=3 lb=3:      1 shell pairs

Checking whether 4 symmetric matrices of dimension 763 fit in memory
:Max Core in MB      =   4096.00
 MB in use           =     51.57
 MB left             =   4044.43
 MB needed           =      8.89
 Data fit in memory  = YES
Calculating RI/J V-Matrix + Cholesky decomp.... done (  0.4 sec)
Calculating Nuclear repulsion               ... done (  0.0 sec) ENN=   5831.320631016642 Eh

Diagonalization of the overlap matrix:
Smallest eigenvalue                        ... 2.652e-04
Time for diagonalization                   ...    0.160 sec
Threshold for overlap eigenvalues          ... 1.000e-07
Number of eigenvalues below threshold      ... 0
Time for construction of square roots      ...    0.110 sec
Total time needed                          ...    0.273 sec

-------------------
DFT GRID GENERATION
-------------------

General Integration Accuracy     IntAcc      ... 4.959
Radial Grid Type                 RadialGrid  ... OptM3 with GC (2021)
Angular Grid (max. ang.)         AngularGrid ... 6 (Lebedev-590)
Angular grid pruning method      GridPruning ... 4 (adaptive)
Weight generation scheme         WeightScheme... mBecke (2022)
Basis function cutoff            BFCut       ... 1.0000e-12
Integration weight cutoff        WCut        ... 1.0000e-14
Partially contracted basis set               ... off
Rotationally invariant grid construction     ... off
Angular grids for H and He will be reduced by one unit
Core-polarized basis detected: some atoms will have their core
                               angular grid increased.
Steep s-basis detected: some atoms will have their radial
                        grid points doubled.

Total number of grid points                  ...   876302
Total number of batches                      ...    13723
Average number of points per batch           ...       63
Average number of grid points per atom       ...    12004
Grids setup in  29.1 sec
Initializing property integral containers    ... done (  0.0 sec)

SHARK setup successfully completed in  30.9 seconds

Maximum memory used throughout the entire STARTUP-calculation: 403.3 MB
-------------------------------------------------------------------------------
                                 ORCA GUESS
                   Start orbitals & Density for SCF / CASSCF
-------------------------------------------------------------------------------

------------
SCF SETTINGS
------------
Hamiltonian:
 Density Functional     Method          .... DFT(GTOs)
 Exchange Functional    Exchange        .... B88
   X-Alpha parameter    XAlpha          ....  0.666667
   Becke's b parameter  XBeta           ....  0.004200
 Correlation Functional Correlation     .... P86
 LDA part of GGA corr.  LDAOpt          .... PW91-LDA
 Gradients option       PostSCFGGA      .... off
   NL short-range parameter             ....  4.400000
 RI-approximation to the Coulomb term is turned on
   Number of AuxJ basis functions       .... 2329


General Settings:
 Integral files         IntName         .... 15h_x2csvp
 Hartree-Fock type      HFTyp           .... RHF
 Total Charge           Charge          ....    0
 Multiplicity           Mult            ....    1
 Number of Electrons    NEL             ....  324
 Basis Dimension        Dim             ....  763
 Nuclear Repulsion      ENuc            ....   5831.3206310166 Eh

Convergence Acceleration:
 AO-DIIS                CNVDIIS         .... on
   Start iteration      DIISMaxIt       ....    12
   Startup error        DIISStart       ....  0.200000
   # of expansion vecs  DIISMaxEq       ....     5
   Bias factor          DIISBfac        ....   1.050
   Max. coefficient     DIISMaxC        ....  10.000
 MO-DIIS                CNVKDIIS        .... off
 Trust-Rad. Augm. Hess. CNVTRAH         .... auto
   Auto Start mean grad. ratio tolernc. ....  1.125000
   Auto Start start iteration           ....    50
   Auto Start num. interpolation iter.  ....    10
   Max. Number of Micro iterations      ....    24
   Max. Number of Macro iterations      .... Maxiter - #DIIS iter
   Number of Davidson start vectors     ....     2
   Converg. threshold    (grad. norm)   ....   2.000e-06
   Grad. Scal. Fac. for Micro threshold ....   0.100
   Minimum threshold for Micro iter.    ....   1.000e-02
   NR start threshold (gradient norm)   ....   1.000e-04
   Initial trust radius                 ....   0.400
   Minimum AH scaling param. (alpha)    ....   1.000
   Maximum AH scaling param. (alpha)    .... 1000.000
   Quad. conv. algorithm                .... NR
   White noise on init. David. guess    .... on
   Maximum white noise                  ....   0.010
   Pseudo random numbers                .... off
   Inactive MOs                         .... canonical
   Orbital update algorithm             .... Taylor
   Preconditioner                       .... Diag
   Full preconditioner red. dimension   ....   250
 SOSCF                 CNVSOSCF           .... on
   Start iteration     SOSCFMaxIt         ....   150
   Startup grad/error  SOSCFStart         ....  0.003300
   Hessian update      SOSCFHessUp        .... L-BFGS
   Autom. constraints  SOSCFAutoConstrain .... off
 Level Shifting         CNVShift        .... on
   Level shift para.    LevelShift      ....    0.2500
   Turn off err/grad.   ShiftErr        ....    0.0010
 Zerner damping         CNVZerner       .... off
 Static damping         CNVDamp         .... on
   Fraction old density DampFac         ....    0.7000
   Max. Damping (<1)    DampMax         ....    0.9800
   Min. Damping (>=0)   DampMin         ....    0.0000
   Turn off err/grad.   DampErr         ....    0.1000

SCF Procedure:
 Maximum # iterations   MaxIter         ....   125
 SCF integral mode      SCFMode         .... Direct
   Integral package                     .... SHARK and LIBINT hybrid scheme
 Reset frequency        DirectResetFreq ....    20
 Integral Threshold     Thresh          ....  1.000e-12 Eh
 Primitive CutOff       TCut            ....  1.000e-14 Eh

Convergence Tolerance:
 Convergence Check Mode ConvCheckMode   .... Total+1el-Energy
 Convergence forced     ConvForced      .... 0
 Energy Change          TolE            ....  1.000e-09 Eh
 1-El. energy change                    ....  1.000e-06 Eh
 Orbital Gradient       TolG            ....  2.000e-06
 Orbital Rotation angle TolX            ....  2.000e-06
 DIIS Error             TolErr          ....  1.000e-08

------------------------------
INITIAL GUESS: MODEL POTENTIAL
------------------------------
Loading Hartree-Fock densities                     ... done
Calculating cut-offs                               ... done
Initializing the effective Hamiltonian             ... done
Setting up the integral package (SHARK)            ... done
Starting the Coulomb interaction                   ... done (   6.9 sec)
Making the grid                                    ... done (   3.9 sec)
Mapping shells                                     ... done
Starting the XC term evaluation                    ... done (   3.0 sec)
  promolecular density results
     # of electrons  =    323.974487599
     EX              =   -369.812093300
     EC              =    -12.996593328
     EX+EC           =   -382.808686628
Transforming the Hamiltonian                       ... done (   0.1 sec)
Diagonalizing the Hamiltonian                      ... done (   0.1 sec)
Back transforming the eigenvectors                 ... done (   0.0 sec)
Now organizing SCF variables                       ... done
                      ------------------
                      INITIAL GUESS DONE (  14.1 sec)
                      ------------------
             **** ENERGY FILE WAS UPDATED (15h_x2csvp.en.tmp) ****
Finished Guess after  14.5 sec
Maximum memory used throughout the entire GUESS-calculation: 93.6 MB

-------------------------------------------------------------------------------------------
                                      ORCA LEAN-SCF
                              memory conserving SCF solver
-------------------------------------------------------------------------------------------

----------------------------------------D-I-I-S--------------------------------------------
Iteration    Energy (Eh)           Delta-E    RMSDP     MaxDP     DIISErr   Damp  Time(sec)
-------------------------------------------------------------------------------------------
               ***  Starting incremental Fock matrix formation  ***
    1    -6609.6826093196868896     0.00e+00  2.01e-03  2.80e-01  2.28e+00  0.700  45.2
Warning: op=0 Small HOMO/LUMO gap (   0.076) - skipping pre-diagonalization
         Will do a full diagonalization
    2    -6610.1225134599153535    -4.40e-01  1.31e-03  1.49e-01  1.60e+00  0.700  36.9
    3    -6610.3319186562694085    -2.09e-01  7.95e-04  1.01e-01  1.12e+00  0.700  30.6
    4    -6610.4612778402461117    -1.29e-01  5.32e-04  7.88e-02  7.86e-01  0.700  31.1
    5    -6610.5527503215544129    -9.15e-02  3.78e-04  6.12e-02  5.51e-01  0.700  30.6
    6    -6610.6172044269096659    -6.45e-02  2.60e-04  4.37e-02  3.86e-01  0.700  28.6
    7    -6610.6622283150427393    -4.50e-02  1.74e-04  2.97e-02  2.70e-01  0.700  29.0
                               ***Turning on AO-DIIS***
    8    -6610.6936957295565662    -3.15e-02  1.16e-04  2.02e-02  1.89e-01  0.700  28.3
    9    -6610.7157012720726925    -2.20e-02  8.41e-05  1.49e-02  1.33e-01  0.700  27.4
   10    -6610.7311094463893824    -1.54e-02  6.09e-05  1.09e-02  9.28e-02  0.700  31.7
   11    -6610.7419001071903040    -1.08e-02  1.39e-04  2.41e-02  6.50e-02  0.000  33.7
                              *** Initializing SOSCF ***
---------------------------------------S-O-S-C-F--------------------------------------
Iteration    Energy (Eh)           Delta-E    RMSDP     MaxDP     MaxGrad    Time(sec)
--------------------------------------------------------------------------------------
   12    -6610.7670677984042413    -2.52e-02  1.21e-05  1.29e-03  3.33e-04    27.7
               *** Restarting incremental Fock matrix formation ***
   13    -6610.7670686229812418    -8.25e-07  1.52e-05  1.54e-03  1.26e-04    37.2
   14    -6610.7670599739740283     8.65e-06  1.05e-05  1.36e-03  4.57e-04    26.4
   15    -6610.7670681257877732    -8.15e-06  1.84e-05  1.59e-03  2.44e-04    26.0
   16    -6610.7670597514243127     8.37e-06  1.31e-05  1.11e-03  2.45e-04    26.0
   17    -6610.7670703836556640    -1.06e-05  5.39e-06  3.35e-04  4.31e-05    28.6
   18    -6610.7670694753323914     9.08e-07  3.87e-06  2.61e-04  8.79e-05    24.0
   19    -6610.7670705742511927    -1.10e-06  6.84e-07  4.03e-05  4.18e-06    25.2
   20    -6610.7670705583386734     1.59e-08  4.62e-07  3.06e-05  9.39e-06    24.2
   21    -6610.7670705794480455    -2.11e-08  2.25e-07  1.02e-05  2.11e-06    22.6
   22    -6610.7670705800737778    -6.26e-10  1.64e-07  7.58e-06  5.87e-06    23.4
                 **** Energy Check signals convergence ****

               *****************************************************
               *                     SUCCESS                       *
               *           SCF CONVERGED AFTER  22 CYCLES          *
               *****************************************************

             **** ENERGY FILE WAS UPDATED (15h_x2csvp.en.tmp) ****

----------------
TOTAL SCF ENERGY
----------------

Total Energy       :      -6610.76707057893691 Eh         -179888.11733 eV

Components:
Nuclear Repulsion  :       5831.32063101664244 Eh          158678.30142 eV
Electronic Energy  :     -12442.08770159557753 Eh         -338566.41874 eV
One Electron Energy:     -20536.51800628384444 Eh         -558827.06517 eV
Two Electron Energy:       8094.43030468826601 Eh          220260.64643 eV

Virial components:
Potential Energy   :     -13687.38674330796493 Eh         -372452.72842 eV
Kinetic Energy     :       7076.61967272902803 Eh          192564.61109 eV
Virial Ratio       :          1.93417017959220

DFT components:
N(Alpha)           :      162.000011218060 electrons
N(Beta)            :      162.000011218060 electrons
N(Total)           :      324.000022436120 electrons
E(X)               :     -376.509810631791 Eh       
E(C)               :      -13.012151892076 Eh       
E(XC)              :     -389.521962523867 Eh       

---------------
SCF CONVERGENCE
---------------

  Last Energy change         ...    6.2573e-10  Tolerance :   1.0000e-09
  Last MAX-Density change    ...    7.5806e-06  Tolerance :   1.0000e-08
  Last RMS-Density change    ...    1.6365e-07  Tolerance :   1.0000e-09
  Last DIIS Error            ...    3.3309e-04  Tolerance :   1.0000e-08
  Last Orbital Gradient      ...    5.8737e-06  Tolerance :   2.0000e-06
  Last Orbital Rotation      ...    7.5891e-06  Tolerance :   2.0000e-06


----------------
ORBITAL ENERGIES
----------------

  NO   OCC          E(Eh)            E(eV) 
   0   2.0000    -831.251580    -22619.5054 
   1   2.0000    -122.310725     -3328.2440 
   2   2.0000    -122.310142     -3328.2282 
   3   2.0000    -122.309894     -3328.2214 
   4   2.0000    -121.141290     -3296.4221 
   5   2.0000     -76.252194     -2074.9277 
   6   2.0000     -76.251819     -2074.9175 
   7   2.0000     -19.385767      -527.5135 
   8   2.0000     -16.774387      -456.4543 
   9   2.0000     -16.773904      -456.4411 
  10   2.0000     -16.773427      -456.4281 
  11   2.0000      -9.920847      -269.9600 
  12   2.0000      -9.920355      -269.9466 
  13   2.0000      -9.918916      -269.9074 
  14   2.0000      -9.918913      -269.9073 
  15   2.0000      -9.918655      -269.9003 
  16   2.0000      -9.918647      -269.9001 
  17   2.0000      -9.918488      -269.8958 
  18   2.0000      -9.918456      -269.8949 
  19   2.0000      -9.918445      -269.8946 
  20   2.0000      -9.918151      -269.8866 
  21   2.0000      -9.917957      -269.8813 
  22   2.0000      -9.917870      -269.8790 
  23   2.0000      -9.917853      -269.8785 
  24   2.0000      -9.917436      -269.8671 
  25   2.0000      -9.917371      -269.8654 
  26   2.0000      -9.917151      -269.8594 
  27   2.0000      -9.917125      -269.8587 
  28   2.0000      -9.917042      -269.8564 
  29   2.0000      -9.916964      -269.8543 
  30   2.0000      -9.916865      -269.8516 
  31   2.0000      -9.916820      -269.8504 
  32   2.0000      -9.916762      -269.8488 
  33   2.0000      -9.916726      -269.8478 
  34   2.0000      -9.916661      -269.8461 
  35   2.0000      -9.916646      -269.8457 
  36   2.0000      -9.916642      -269.8455 
  37   2.0000      -9.916415      -269.8394 
  38   2.0000      -9.916028      -269.8288 
  39   2.0000      -9.916019      -269.8286 
  40   2.0000      -9.915847      -269.8239 
  41   2.0000      -9.915565      -269.8162 
  42   2.0000      -9.915517      -269.8149 
  43   2.0000      -9.915088      -269.8033 
  44   2.0000      -9.913855      -269.7697 
  45   2.0000      -9.913374      -269.7566 
  46   2.0000      -9.911503      -269.7057 
  47   2.0000      -9.450333      -257.1566 
  48   2.0000      -9.450124      -257.1510 
  49   2.0000      -9.449668      -257.1385 
  50   2.0000      -9.449623      -257.1373 
  51   2.0000      -9.449402      -257.1313 
  52   2.0000      -6.314853      -171.8359 
  53   2.0000      -6.314634      -171.8299 
  54   2.0000      -4.544332      -123.6576 
  55   2.0000      -4.544123      -123.6519 
  56   2.0000      -4.544077      -123.6506 
  57   2.0000      -4.543837      -123.6441 
  58   2.0000      -4.541369      -123.5769 
  59   2.0000      -4.541144      -123.5708 
  60   2.0000      -2.582062       -70.2615 
  61   2.0000      -1.731281       -47.1106 
  62   2.0000      -1.727659       -47.0120 
  63   2.0000      -1.725457       -46.9521 
  64   2.0000      -0.782325       -21.2881 
  65   2.0000      -0.781875       -21.2759 
  66   2.0000      -0.774041       -21.0627 
  67   2.0000      -0.773791       -21.0559 
  68   2.0000      -0.772669       -21.0254 
  69   2.0000      -0.771981       -21.0067 
  70   2.0000      -0.701612       -19.0918 
  71   2.0000      -0.700794       -19.0696 
  72   2.0000      -0.673642       -18.3307 
  73   2.0000      -0.673383       -18.3237 
  74   2.0000      -0.672322       -18.2948 
  75   2.0000      -0.672126       -18.2895 
  76   2.0000      -0.670431       -18.2434 
  77   2.0000      -0.669452       -18.2167 
  78   2.0000      -0.667722       -18.1696 
  79   2.0000      -0.667541       -18.1647 
  80   2.0000      -0.666463       -18.1354 
  81   2.0000      -0.665858       -18.1189 
  82   2.0000      -0.591728       -16.1017 
  83   2.0000      -0.589500       -16.0411 
  84   2.0000      -0.547503       -14.8983 
  85   2.0000      -0.547024       -14.8853 
  86   2.0000      -0.544411       -14.8142 
  87   2.0000      -0.543867       -14.7994 
  88   2.0000      -0.543256       -14.7828 
  89   2.0000      -0.541423       -14.7329 
  90   2.0000      -0.534242       -14.5375 
  91   2.0000      -0.533843       -14.5266 
  92   2.0000      -0.532538       -14.4911 
  93   2.0000      -0.531703       -14.4684 
  94   2.0000      -0.505247       -13.7485 
  95   2.0000      -0.503025       -13.6880 
  96   2.0000      -0.469082       -12.7644 
  97   2.0000      -0.468232       -12.7412 
  98   2.0000      -0.467359       -12.7175 
  99   2.0000      -0.466145       -12.6844 
 100   2.0000      -0.446841       -12.1592 
 101   2.0000      -0.443954       -12.0806 
 102   2.0000      -0.420533       -11.4433 
 103   2.0000      -0.411808       -11.2059 
 104   2.0000      -0.411473       -11.1967 
 105   2.0000      -0.409411       -11.1406 
 106   2.0000      -0.408455       -11.1146 
 107   2.0000      -0.407825       -11.0975 
 108   2.0000      -0.406617       -11.0646 
 109   2.0000      -0.400140       -10.8884 
 110   2.0000      -0.399219       -10.8633 
 111   2.0000      -0.398279       -10.8377 
 112   2.0000      -0.397151       -10.8070 
 113   2.0000      -0.392805       -10.6888 
 114   2.0000      -0.391736       -10.6597 
 115   2.0000      -0.379077       -10.3152 
 116   2.0000      -0.376689       -10.2502 
 117   2.0000      -0.376378       -10.2418 
 118   2.0000      -0.376266       -10.2387 
 119   2.0000      -0.375802       -10.2261 
 120   2.0000      -0.373471       -10.1627 
 121   2.0000      -0.368818       -10.0360 
 122   2.0000      -0.368046       -10.0150 
 123   2.0000      -0.365825        -9.9546 
 124   2.0000      -0.364107        -9.9079 
 125   2.0000      -0.342980        -9.3330 
 126   2.0000      -0.337180        -9.1751 
 127   2.0000      -0.335703        -9.1349 
 128   2.0000      -0.334592        -9.1047 
 129   2.0000      -0.331133        -9.0106 
 130   2.0000      -0.329865        -8.9761 
 131   2.0000      -0.327458        -8.9106 
 132   2.0000      -0.324222        -8.8225 
 133   2.0000      -0.308142        -8.3850 
 134   2.0000      -0.305751        -8.3199 
 135   2.0000      -0.305516        -8.3135 
 136   2.0000      -0.304629        -8.2894 
 137   2.0000      -0.304229        -8.2785 
 138   2.0000      -0.301623        -8.2076 
 139   2.0000      -0.296548        -8.0695 
 140   2.0000      -0.292034        -7.9467 
 141   2.0000      -0.291809        -7.9405 
 142   2.0000      -0.289299        -7.8722 
 143   2.0000      -0.288169        -7.8415 
 144   2.0000      -0.268346        -7.3021 
 145   2.0000      -0.259351        -7.0573 
 146   2.0000      -0.242488        -6.5984 
 147   2.0000      -0.240535        -6.5453 
 148   2.0000      -0.240118        -6.5340 
 149   2.0000      -0.238021        -6.4769 
 150   2.0000      -0.236877        -6.4457 
 151   2.0000      -0.234255        -6.3744 
 152   2.0000      -0.233239        -6.3468 
 153   2.0000      -0.230888        -6.2828 
 154   2.0000      -0.229465        -6.2441 
 155   2.0000      -0.228160        -6.2086 
 156   2.0000      -0.226555        -6.1649 
 157   2.0000      -0.219737        -5.9794 
 158   2.0000      -0.208370        -5.6700 
 159   2.0000      -0.178306        -4.8520 
 160   2.0000      -0.170923        -4.6510 
 161   2.0000      -0.165843        -4.5128 
 162   0.0000      -0.079121        -2.1530 
 163   0.0000      -0.059756        -1.6260 
 164   0.0000      -0.056516        -1.5379 
 165   0.0000      -0.053879        -1.4661 
 166   0.0000      -0.053436        -1.4541 
 167   0.0000      -0.051481        -1.4009 
 168   0.0000      -0.049118        -1.3366 
 169   0.0000      -0.046367        -1.2617 
 170   0.0000      -0.042211        -1.1486 
 171   0.0000      -0.036796        -1.0013 
 172   0.0000      -0.035887        -0.9765 
*Only the first 10 virtual orbitals were printed.

                    ********************************
                    * MULLIKEN POPULATION ANALYSIS *
                    ********************************

-----------------------
MULLIKEN ATOMIC CHARGES
-----------------------
   0 Ru:   -0.722956
   1 P :    0.366288
   2 P :    0.341993
   3 C :   -0.085572
   4 C :    0.010574
   5 C :    0.004577
   6 C :   -0.003511
   7 C :   -0.086345
   8 C :    0.030853
   9 C :    0.006362
  10 C :    0.011271
  11 C :    0.007403
  12 C :   -0.001506
  13 C :   -0.093820
  14 C :    0.011813
  15 C :    0.032356
  16 C :    0.004485
  17 C :    0.011352
  18 C :    0.007782
  19 C :   -0.002731
  20 C :   -0.097373
  21 C :    0.003925
  22 C :    0.006161
  23 C :    0.011379
  24 C :    0.008225
  25 C :    0.007724
  26 C :   -0.000564
  27 C :   -0.106521
  28 C :    0.014428
  29 C :    0.005267
  30 C :    0.012023
  31 C :    0.006962
  32 C :   -0.005458
  33 C :    0.011913
  34 C :    0.006133
  35 C :   -0.011438
  36 C :   -0.088131
  37 C :   -0.000059
  38 C :    0.006657
  39 H :    0.014415
  40 H :   -0.003831
  41 H :   -0.000508
  42 H :   -0.003178
  43 H :   -0.005749
  44 H :    0.009277
  45 H :   -0.002647
  46 H :   -0.000896
  47 H :   -0.002699
  48 H :    0.013126
  49 H :    0.014266
  50 H :    0.017692
  51 H :   -0.002136
  52 H :   -0.000032
  53 H :   -0.002465
  54 H :    0.005643
  55 H :   -0.002783
  56 H :   -0.000563
  57 H :   -0.003487
  58 H :    0.008400
  59 H :    0.008840
  60 H :    0.012530
  61 H :   -0.002574
  62 H :   -0.002290
  63 H :   -0.000291
  64 H :    0.012884
  65 H :    0.023917
  66 H :   -0.001930
  67 H :   -0.000240
  68 H :   -0.002290
  69 H :    0.036637
  70 H :    0.138787
  71 H :    0.012551
  72 H :    0.069699
Sum of atomic charges:   -0.0000000

--------------------------------
MULLIKEN REDUCED ORBITAL CHARGES
--------------------------------
  0 Rus       :     8.759484  s :     8.759484
      pz      :     6.118821  p :    18.359535
      px      :     6.103505
      py      :     6.137208
      dz2     :     3.390021  d :    17.597727
      dxz     :     3.790733
      dyz     :     3.338445
      dx2y2   :     3.305420
      dxy     :     3.773110
      f0      :     0.000614  f :     0.006210
      f+1     :     0.000866
      f-1     :     0.001039
      f+2     :     0.001512
      f-2     :     0.000016
      f+3     :     0.001375
      f-3     :     0.000789

  1 P s       :     5.352468  s :     5.352468
      pz      :     2.891058  p :     9.024552
      px      :     3.213094
      py      :     2.920400
      dz2     :     0.045257  d :     0.256692
      dxz     :     0.064153
      dyz     :     0.045184
      dx2y2   :     0.037023
      dxy     :     0.065075

  2 P s       :     5.362544  s :     5.362544
      pz      :     2.898919  p :     9.039064
      px      :     3.224807
      py      :     2.915338
      dz2     :     0.049022  d :     0.256399
      dxz     :     0.061758
      dyz     :     0.041347
      dx2y2   :     0.036191
      dxy     :     0.068081

  3 C s       :     3.063259  s :     3.063259
      pz      :     0.999785  p :     2.987815
      px      :     0.980484
      py      :     1.007547
      dz2     :     0.008193  d :     0.034498
      dxz     :     0.009775
      dyz     :     0.005445
      dx2y2   :     0.005944
      dxy     :     0.005141

  4 C s       :     3.170395  s :     3.170395
      pz      :     0.918446  p :     2.786309
      px      :     0.941502
      py      :     0.926361
      dz2     :     0.004930  d :     0.032722
      dxz     :     0.003997
      dyz     :     0.008956
      dx2y2   :     0.006829
      dxy     :     0.008011

  5 C s       :     3.173794  s :     3.173794
      pz      :     0.974498  p :     2.788791
      px      :     0.974029
      py      :     0.840264
      dz2     :     0.007511  d :     0.032838
      dxz     :     0.005314
      dyz     :     0.006403
      dx2y2   :     0.007983
      dxy     :     0.005627

  6 C s       :     3.229486  s :     3.229486
      pz      :     0.887554  p :     2.741086
      px      :     0.913005
      py      :     0.940527
      dz2     :     0.004914  d :     0.032939
      dxz     :     0.004188
      dyz     :     0.008795
      dx2y2   :     0.007191
      dxy     :     0.007850

  7 C s       :     3.062637  s :     3.062637
      pz      :     1.019463  p :     2.989386
      px      :     0.979363
      py      :     0.990559
      dz2     :     0.004453  d :     0.034321
      dxz     :     0.005840
      dyz     :     0.004128
      dx2y2   :     0.009933
      dxy     :     0.009967

  8 C s       :     3.234225  s :     3.234225
      pz      :     0.942252  p :     2.702272
      px      :     0.857354
      py      :     0.902667
      dz2     :     0.003378  d :     0.032649
      dxz     :     0.003477
      dyz     :     0.006379
      dx2y2   :     0.010247
      dxy     :     0.009168

  9 C s       :     3.175765  s :     3.175765
      pz      :     0.961121  p :     2.785213
      px      :     0.917019
      py      :     0.907073
      dz2     :     0.002695  d :     0.032660
      dxz     :     0.005011
      dyz     :     0.005118
      dx2y2   :     0.009142
      dxy     :     0.010693

 10 C s       :     3.170846  s :     3.170846
      pz      :     0.973275  p :     2.785095
      px      :     0.949713
      py      :     0.862107
      dz2     :     0.004152  d :     0.032788
      dxz     :     0.005756
      dyz     :     0.003641
      dx2y2   :     0.009569
      dxy     :     0.009670

 11 C s       :     3.171734  s :     3.171734
      pz      :     0.970774  p :     2.788176
      px      :     0.855833
      py      :     0.961569
      dz2     :     0.003406  d :     0.032687
      dxz     :     0.003519
      dyz     :     0.006424
      dx2y2   :     0.010433
      dxy     :     0.008903

 12 C s       :     3.233341  s :     3.233341
      pz      :     0.945894  p :     2.735157
      px      :     0.928297
      py      :     0.860965
      dz2     :     0.002760  d :     0.033007
      dxz     :     0.005160
      dyz     :     0.005383
      dx2y2   :     0.009045
      dxy     :     0.010659

 13 C s       :     3.070347  s :     3.070347
      pz      :     1.014966  p :     2.989067
      px      :     0.979548
      py      :     0.994553
      dz2     :     0.006568  d :     0.034406
      dxz     :     0.006079
      dyz     :     0.005486
      dx2y2   :     0.008136
      dxy     :     0.008137

 14 C s       :     3.223490  s :     3.223490
      pz      :     0.920326  p :     2.731945
      px      :     0.891516
      py      :     0.920102
      dz2     :     0.010294  d :     0.032753
      dxz     :     0.008994
      dyz     :     0.007113
      dx2y2   :     0.002596
      dxy     :     0.003756

 15 C s       :     3.222020  s :     3.222020
      pz      :     0.942926  p :     2.712909
      px      :     0.874984
      py      :     0.894999
      dz2     :     0.004986  d :     0.032715
      dxz     :     0.004899
      dyz     :     0.007086
      dx2y2   :     0.008032
      dxy     :     0.007713

 16 C s       :     3.175610  s :     3.175610
      pz      :     0.923347  p :     2.787198
      px      :     0.939002
      py      :     0.924849
      dz2     :     0.004055  d :     0.032707
      dxz     :     0.005289
      dyz     :     0.006818
      dx2y2   :     0.007995
      dxy     :     0.008549

 17 C s       :     3.170905  s :     3.170905
      pz      :     0.968450  p :     2.784984
      px      :     0.948674
      py      :     0.867860
      dz2     :     0.006397  d :     0.032758
      dxz     :     0.006078
      dyz     :     0.005175
      dx2y2   :     0.007508
      dxy     :     0.007600

 18 C s       :     3.172249  s :     3.172249
      pz      :     0.945812  p :     2.787272
      px      :     0.882676
      py      :     0.958784
      dz2     :     0.005012  d :     0.032697
      dxz     :     0.004995
      dyz     :     0.007227
      dx2y2   :     0.007952
      dxy     :     0.007512

 19 C s       :     3.238058  s :     3.238058
      pz      :     0.916544  p :     2.731731
      px      :     0.938440
      py      :     0.876747
      dz2     :     0.004078  d :     0.032943
      dxz     :     0.005386
      dyz     :     0.006912
      dx2y2   :     0.008041
      dxy     :     0.008526

 20 C s       :     3.070077  s :     3.070077
      pz      :     1.005380  p :     2.992917
      px      :     0.986686
      py      :     1.000850
      dz2     :     0.004567  d :     0.034380
      dxz     :     0.004802
      dyz     :     0.007346
      dx2y2   :     0.008711
      dxy     :     0.008953

 21 C s       :     3.227979  s :     3.227979
      pz      :     0.908854  p :     2.735226
      px      :     0.884217
      py      :     0.942155
      dz2     :     0.004038  d :     0.032870
      dxz     :     0.004137
      dyz     :     0.007647
      dx2y2   :     0.008487
      dxy     :     0.008561

 22 C s       :     3.173958  s :     3.173958
      pz      :     0.978941  p :     2.787077
      px      :     0.961475
      py      :     0.846661
      dz2     :     0.006040  d :     0.032805
      dxz     :     0.005372
      dyz     :     0.005098
      dx2y2   :     0.009010
      dxy     :     0.007284

 23 C s       :     3.170730  s :     3.170730
      pz      :     0.934387  p :     2.785155
      px      :     0.930593
      py      :     0.920175
      dz2     :     0.003864  d :     0.032736
      dxz     :     0.004316
      dyz     :     0.007494
      dx2y2   :     0.007872
      dxy     :     0.009190

 24 C s       :     3.172118  s :     3.172118
      pz      :     0.948108  p :     2.786924
      px      :     0.899067
      py      :     0.939749
      dz2     :     0.004041  d :     0.032733
      dxz     :     0.004137
      dyz     :     0.007629
      dx2y2   :     0.008375
      dxy     :     0.008552

 25 C s       :     3.174238  s :     3.174238
      pz      :     0.889070  p :     2.785299
      px      :     0.925324
      py      :     0.970905
      dz2     :     0.007878  d :     0.032738
      dxz     :     0.010048
      dyz     :     0.005734
      dx2y2   :     0.004710
      dxy     :     0.004368

[...]
B(  0-Ru, 70-H ) :   0.4154 B(  0-Ru, 71-H ) :   0.9219 B(  0-Ru, 72-H ) :   0.6736 
B(  1-P ,  2-P ) :   0.1054 B(  1-P ,  3-C ) :   0.9305 B(  1-P ,  7-C ) :   0.9380 
B(  1-P , 36-C ) :   0.9234 B(  2-P , 13-C ) :   0.9424 B(  2-P , 20-C ) :   0.9229 
B(  2-P , 27-C ) :   0.9294 B(  3-C , 14-C ) :   1.3693 B(  3-C , 35-C ) :   1.3862 
B(  4-C ,  5-C ) :   1.3600 B(  4-C , 38-C ) :   1.3903 B(  4-C , 46-H ) :   0.9790 
B(  5-C ,  6-C ) :   1.4085 B(  5-C , 45-H ) :   0.9790 B(  6-C , 36-C ) :   1.3500 
B(  6-C , 44-H ) :   0.9699 B(  7-C ,  8-C ) :   1.4123 B(  7-C , 12-C ) :   1.3417 
B(  8-C ,  9-C ) :   1.3654 B(  8-C , 39-H ) :   0.9635 B(  9-C , 10-C ) :   1.3774 
B(  9-C , 40-H ) :   0.9784 B( 10-C , 11-C ) :   1.3691 B( 10-C , 41-H ) :   0.9785 
B( 11-C , 12-C ) :   1.3986 B( 11-C , 42-H ) :   0.9788 B( 12-C , 43-H ) :   0.9735 
B( 13-C , 15-C ) :   1.3944 B( 13-C , 19-C ) :   1.3604 B( 14-C , 25-C ) :   1.3905 
B( 14-C , 50-H ) :   0.9620 B( 15-C , 16-C ) :   1.3804 B( 15-C , 58-H ) :   0.9610 
B( 16-C , 17-C ) :   1.3709 B( 16-C , 57-H ) :   0.9788 B( 17-C , 18-C ) :   1.3765 
B( 17-C , 56-H ) :   0.9787 B( 18-C , 19-C ) :   1.3831 B( 18-C , 55-H ) :   0.9788 
B( 19-C , 54-H ) :   0.9732 B( 20-C , 21-C ) :   1.3565 B( 20-C , 26-C ) :   1.4001 
B( 21-C , 22-C ) :   1.4011 B( 21-C , 59-H ) :   0.9675 B( 22-C , 23-C ) :   1.3629 
B( 22-C , 62-H ) :   0.9791 B( 23-C , 24-C ) :   1.3861 B( 23-C , 63-H ) :   0.9789 
B( 24-C , 26-C ) :   1.3695 B( 24-C , 61-H ) :   0.9766 B( 25-C , 33-C ) :   1.3687 
B( 25-C , 51-H ) :   0.9781 B( 26-C , 60-H ) :   0.9682 B( 27-C , 28-C ) :   1.3651 
B( 27-C , 32-C ) :   1.3888 B( 28-C , 29-C ) :   1.3921 B( 28-C , 65-H ) :   0.9605 
B( 29-C , 30-C ) :   1.3662 B( 29-C , 66-H ) :   0.9787 B( 30-C , 31-C ) :   1.3806 
B( 30-C , 67-H ) :   0.9788 B( 31-C , 32-C ) :   1.3724 B( 31-C , 68-H ) :   0.9771 
B( 32-C , 64-H ) :   0.9684 B( 33-C , 34-C ) :   1.3786 B( 33-C , 52-H ) :   0.9790 
B( 34-C , 35-C ) :   1.3778 B( 34-C , 53-H ) :   0.9774 B( 35-C , 49-H ) :   0.9648 
B( 36-C , 37-C ) :   1.4071 B( 37-C , 38-C ) :   1.3664 B( 37-C , 48-H ) :   0.9676 
B( 38-C , 47-H ) :   0.9762 B( 69-H , 70-H ) :   0.4620 

-------
TIMINGS
-------

Total SCF time: 0 days 0 hours 11 min 8 sec 

Total time                  ....     668.293 sec
Sum of individual times     ....     645.698 sec  ( 96.6%)

SCF preparation             ....       0.318 sec  (  0.0%)
Fock matrix formation       ....     634.180 sec  ( 94.9%)
  Startup                   ....       0.078 sec  (  0.0% of F)
  Split-RI-J                ....     262.083 sec  ( 41.3% of F)
  XC integration            ....     394.135 sec  ( 62.1% of F)
    XC Preparation          ....       0.000 sec  (  0.0% of XC)
    Basis function eval.    ....     138.347 sec  ( 35.1% of XC)
    Density eval.           ....     137.695 sec  ( 34.9% of XC)
    XC-Functional eval.     ....      10.971 sec  (  2.8% of XC)
    XC-Potential eval.      ....     100.246 sec  ( 25.4% of XC)
Diagonalization             ....       0.000 sec  (  0.0%)
Density matrix formation    ....       0.568 sec  (  0.1%)
Total Energy calculation    ....       0.117 sec  (  0.0%)
Population analysis         ....       0.258 sec  (  0.0%)
Orbital Transformation      ....       0.880 sec  (  0.1%)
Orbital Orthonormalization  ....       0.000 sec  (  0.0%)
DIIS solution               ....       6.480 sec  (  1.0%)
SOSCF solution              ....       2.897 sec  (  0.4%)
Finished LeanSCF after 668.4 sec

Maximum memory used throughout the entire LEANSCF-calculation: 195.6 MB
------------------------------------------------------------------------------
                           ORCA ORBITAL LOCALIZATION
------------------------------------------------------------------------------

Input orbitals are from                  ... 15h_x2csvp.gbw
Output orbitals are to                   ... 15h_x2csvp.loc
Max. number of iterations                ... 128
Localizations seeded randomly            ... on
Convergence tolerance                    ... 1.000e-06
Threshold for strong local MOs           ... 9.500e-01
Threshold for bond MOs                   ... 8.500e-01
Operator                                 ... 0
Orbital range for localization           ... 54 to 161
Localization criterion                   ... NEW-BOYS
Doing the dipole integrals               ... o.k.
Initial value of the localization sum :  7185.311447
ITERATION   0 : L= 7749.5893905129 DL=  5.64e+02 (AVERGE_DL)=    0.3125055746 
ITERATION   1 : L= 7969.7839103287 DL=  2.20e+02 (AVERGE_DL)=    0.1952155840 
ITERATION   2 : L= 7997.6566169677 DL=  2.79e+01 (AVERGE_DL)=    0.0694545662 
ITERATION   3 : L= 7999.5637352511 DL=  1.91e+00 (AVERGE_DL)=    0.0181677040 
ITERATION   4 : L= 8000.3385782984 DL=  7.75e-01 (AVERGE_DL)=    0.0115802544 
ITERATION   5 : L= 8000.7453931877 DL=  4.07e-01 (AVERGE_DL)=    0.0083909214 
ITERATION   6 : L= 8000.9115481664 DL=  1.66e-01 (AVERGE_DL)=    0.0053625075 
ITERATION   7 : L= 8000.9623808076 DL=  5.08e-02 (AVERGE_DL)=    0.0029660780 
ITERATION   8 : L= 8000.9757478678 DL=  1.34e-02 (AVERGE_DL)=    0.0015209999 
ITERATION   9 : L= 8000.9790932841 DL=  3.35e-03 (AVERGE_DL)=    0.0007609153 
ITERATION  10 : L= 8000.9799236459 DL=  8.30e-04 (AVERGE_DL)=    0.0003790922 
ITERATION  11 : L= 8000.9801324815 DL=  2.09e-04 (AVERGE_DL)=    0.0001901137 
ITERATION  12 : L= 8000.9801869587 DL=  5.45e-05 (AVERGE_DL)=    0.0000970999 
ITERATION  13 : L= 8000.9802022373 DL=  1.53e-05 (AVERGE_DL)=    0.0000514225 
ITERATION  14 : L= 8000.9802070990 DL=  4.86e-06 (AVERGE_DL)=    0.0000290071 
ITERATION  15 : L= 8000.9802089023 DL=  1.80e-06 (AVERGE_DL)=    0.0000176665 
ITERATION  16 : L= 8000.9802096867 DL=  7.84e-07 (AVERGE_DL)=    0.0000116518 
LOCALIZATION SUM CONVERGED


--------------------------------------------------------------------------------
                    LOCALIZED MOLECULAR ORBITAL COMPOSITIONS
--------------------------------------------------------------------------------

The Mulliken populations for each LMO on each atom are computed
The LMO`s will be ordered according to atom index and type
  (A) Strongly localized MO`s have populations of >=0.950 on one atom
  (B) Two center bond orbitals have populations of >=0.850 on two atoms
  (C) Other MO`s are considered to be `delocalized`

FOUND  -  13 strongly local MO`s
       -  94 two center bond MO`s
       -   1 significantly delocalized MO`s

Rather strongly localized orbitals:
MO  66:   2P  -   0.999312
MO  65:   2P  -   1.000294
MO  64:   2P  -   1.000217
MO  63:   1P  -   0.999247
MO  62:   1P  -   1.000357
MO  61:   1P  -   1.000119
MO  60:   0Ru -   0.951857
MO  59:   0Ru -   0.959173
MO  58:   0Ru -   0.969250
MO  57:   0Ru -   0.971034
MO  56:   0Ru -   0.952312
MO  55:   0Ru -   0.977626
MO  54:   0Ru -   0.980568
Bond-like localized orbitals:
MO 160:  72H  -   0.479952  and   0Ru -   0.427676
MO 159:  71H  -   0.476258  and   0Ru -   0.497190
MO 158:  68H  -   0.516470  and  31C  -   0.513925
MO 157:  67H  -   0.515493  and  30C  -   0.515254
MO 156:  66H  -   0.516179  and  29C  -   0.515025
MO 155:  65H  -   0.491847  and  28C  -   0.535029
MO 154:  64H  -   0.503498  and  32C  -   0.527617
MO 153:  63H  -   0.515525  and  23C  -   0.515190
MO 152:  62H  -   0.516491  and  22C  -   0.515181
MO 151:  61H  -   0.516630  and  24C  -   0.513240
MO 150:  60H  -   0.503650  and  26C  -   0.527449
MO 149:  59H  -   0.502921  and  21C  -   0.527163
MO 148:  58H  -   0.499014  and  15C  -   0.529962
MO 147:  57H  -   0.517151  and  16C  -   0.514287
MO 146:  56H  -   0.515734  and  17C  -   0.514908
MO 145:  55H  -   0.516790  and  18C  -   0.514722
MO 144:  54H  -   0.506620  and  19C  -   0.526561
MO 143:  53H  -   0.516491  and  34C  -   0.514165
MO 142:  52H  -   0.515373  and  33C  -   0.515501
MO 141:  51H  -   0.516217  and  25C  -   0.514522
MO 140:  50H  -   0.496062  and  14C  -   0.529951
MO 139:  49H  -   0.502944  and  35C  -   0.525669
MO 138:  48H  -   0.503689  and  37C  -   0.527109
MO 137:  47H  -   0.516698  and  38C  -   0.512715
MO 136:  46H  -   0.515856  and   4C  -   0.514990
MO 135:  45H  -   0.516698  and   5C  -   0.514889
MO 134:  44H  -   0.504406  and   6C  -   0.525572
MO 133:  43H  -   0.510120  and  12C  -   0.522436
MO 132:  42H  -   0.517053  and  11C  -   0.514473
MO 131:  41H  -   0.515740  and  10C  -   0.514738
MO 130:  40H  -   0.517352  and   9C  -   0.513908
MO 129:  39H  -   0.495890  and   8C  -   0.534922
MO 128:  38C  -   0.517845  and  37C  -   0.493301
MO 127:  38C  -   0.466686  and   4C  -   0.462187
MO 126:  38C  -   0.469327  and   4C  -   0.459245
MO 125:  37C  -   0.452624  and  36C  -   0.466520
MO 124:  37C  -   0.444765  and  36C  -   0.479947
MO 123:  36C  -   0.508412  and   6C  -   0.500167
MO 122:  36C  -   0.548841  and   1P  -   0.476231
MO 121:  35C  -   0.496499  and  34C  -   0.514544
MO 120:  35C  -   0.442489  and   3C  -   0.479021
MO 119:  35C  -   0.458181  and   3C  -   0.460280
MO 118:  34C  -   0.470762  and  33C  -   0.456748
MO 117:  34C  -   0.465773  and  33C  -   0.458746
MO 116:  33C  -   0.511065  and  25C  -   0.503304
MO 115:  32C  -   0.494466  and  31C  -   0.517074
MO 114:  32C  -   0.443695  and  27C  -   0.476400
MO 113:  32C  -   0.452962  and  27C  -   0.467826
MO 112:  31C  -   0.466072  and  30C  -   0.459325
MO 111:  31C  -   0.470523  and  30C  -   0.457072
MO 110:  30C  -   0.510991  and  29C  -   0.503520
MO 109:  29C  -   0.471799  and  28C  -   0.452838
MO 108:  29C  -   0.473604  and  28C  -   0.446701
MO 107:  28C  -   0.499079  and  27C  -   0.512379
MO 106:  27C  -   0.547794  and   2P  -   0.470624
MO 105:  26C  -   0.493633  and  24C  -   0.517926
MO 104:  26C  -   0.449395  and  20C  -   0.469858
MO 103:  26C  -   0.445212  and  20C  -   0.478094
MO 102:  25C  -   0.469917  and  14C  -   0.454140
MO 101:  25C  -   0.473967  and  14C  -   0.445126
MO 100:  24C  -   0.467328  and  23C  -   0.460667
MO  99:  24C  -   0.469168  and  23C  -   0.458219
MO  98:  23C  -   0.510265  and  22C  -   0.504641
MO  97:  22C  -   0.473598  and  21C  -   0.449548
MO  96:  22C  -   0.468479  and  21C  -   0.458574
MO  95:  21C  -   0.499957  and  20C  -   0.510576
MO  94:  20C  -   0.549793  and   2P  -   0.470990
MO  93:  19C  -   0.500531  and  18C  -   0.511271
MO  92:  19C  -   0.441842  and  13C  -   0.476405
MO  91:  19C  -   0.452353  and  13C  -   0.469844
MO  90:  18C  -   0.469604  and  17C  -   0.455736
MO  89:  18C  -   0.471811  and  17C  -   0.454345
MO  88:  17C  -   0.513501  and  16C  -   0.500834
MO  87:  16C  -   0.482006  and  15C  -   0.436936
MO  86:  16C  -   0.474489  and  15C  -   0.447652
MO  85:  15C  -   0.499035  and  13C  -   0.513850
MO  84:  14C  -   0.503280  and   3C  -   0.506613
MO  83:  13C  -   0.544517  and   2P  -   0.476675
MO  82:  12C  -   0.452930  and  11C  -   0.473090
MO  81:  12C  -   0.453179  and  11C  -   0.470894
MO  80:  12C  -   0.508582  and   7C  -   0.497214
MO  79:  11C  -   0.504616  and  10C  -   0.510482
MO  78:  10C  -   0.458543  and   9C  -   0.468162
MO  77:  10C  -   0.456815  and   9C  -   0.469213
MO  76:   9C  -   0.523875  and   8C  -   0.486926
MO  75:   8C  -   0.441326  and   7C  -   0.479570
MO  74:   8C  -   0.429732  and   7C  -   0.492719
MO  73:   7C  -   0.541730  and   1P  -   0.479009
MO  72:   6C  -   0.451199  and   5C  -   0.473485
MO  71:   6C  -   0.462112  and   5C  -   0.465779
MO  70:   5C  -   0.505314  and   4C  -   0.509631
MO  69:   3C  -   0.547237  and   1P  -   0.472961
MO  68:   2P  -   0.788597  and   0Ru -   0.212655
MO  67:   1P  -   0.768733  and   0Ru -   0.227520
More delocalized orbitals:
MO 161:  0Ru- 0.184 69H - 0.431 70H - 0.377
Localized MO's were stored in: 15h_x2csvp.loc

-------------------------   --------------------
FINAL SINGLE POINT ENERGY     -6610.767070578937
-------------------------   --------------------


------------------------------------------------------------------------------
                              ORCA PROPERTY CALCULATIONS
------------------------------------------------------------------------------

GBWName                                 ... 15h_x2csvp.gbw
Number of atoms                         ...     73
Number of basis functions               ...    763
Max core memory                         ...   4096 MB

Electric properties:
Dipole moment                           ... YES
Quadrupole moment                       ...  NO
Static polarizability (Dipole/Dipole)   ...  NO
Static polarizability (Dipole/Quad.)    ...  NO
Static polarizability (Quad./Quad.)     ...  NO
Static polarizability (Velocity)        ...  NO
Static hyperpolarizability              ...  NO

Atomic electric properties:
Dipole moment                           ...  NO
Quadrupole moment                       ...  NO
Static polarizability                   ...  NO

Choice of electric origin               ... Center of mass
Position of electric origin             ...    -0.002441    -0.033901     0.016895

General magnetic properties:
Magnetizability                         ...  NO

EPR properties:
g-Tensor (aka g-matrix)                 ...  NO
Zero-Field splitting spin-orbit         ...  NO
Zero-field splitting spin-spin          ...  NO
Hyperfine couplings                     ...  NO (   0 nuclei)
Quadrupole couplings                    ...  NO (   0 nuclei)
Contact density                         ...  NO (   0 nuclei)

NMR properties:
Chemical shifts                         ...  NO (   0 nuclei)
Spin-rotation constants                 ...  NO (   0 nuclei)
Spin-spin couplings                     ...  NO (   0 nuclei,    0 pairs)

Choice of magnetic origin               ... GIAO
Position of magnetic origin             ...     0.000000     0.000000     0.000000

Properties with geometric perturbations:
SCF Hessian                             ...  NO
IR spectrum                             ...  NO
VCD spectrum                            ...  NO
X-ray spectroscopy properties:
SCF XES/XAS/RIXS spectra                ...  NO

SCF SOC stabilization energy            ...  NO
Diagonal Born-Oppenheimer correction    ...  NO

-------------
DIPOLE MOMENT
-------------

Method             : SCF
Type of density    : Electron Density
Multiplicity       :   1
Irrep              :   0
Energy             : -6610.7670705789369094 Eh
Basis              : AO
                                X                 Y                 Z
Electronic contribution:     -0.166365444      -3.870056508      -1.892328531
Nuclear contribution   :      0.193135646       3.629245733       2.158769457
                        -----------------------------------------
Total Dipole Moment    :      0.026770202      -0.240810775       0.266440927
                        -----------------------------------------
Magnitude (a.u.)       :      0.360135031
Magnitude (Debye)      :      0.915390502



--------------------
Rotational spectrum 
--------------------
 
Rotational constants in cm-1:             0.003559             0.001831             0.001814 
Rotational constants in MHz :           106.691148            54.898207            54.385379 

Dipole components along the rotational axes: 
x,y,z [a.u.] :     0.030432    -0.308448    -0.183388 
x,y,z [Debye]:     0.077352    -0.784012    -0.466135 

 

Dipole moment calculation done in   0.0 sec 

Maximum memory used throughout the entire PROP-calculation: 96.2 MB

--------------------------------
SUGGESTED CITATIONS FOR THIS RUN
--------------------------------

Below you find a list of papers that are relevant to this ORCA run
We neither can nor want to force you to cite these papers, but we appreciate if you do
You receive ORCA, which is the product of decades of hard work by many enthusiastic individuals, for free
The only thing we kindly ask in return is that you cite our papers,
We deeply appreciate it, if you show your appreciation for ORCA by not just citing the generic ORCA reference.

Please note that relegating all ORCA citations to the supporting information does *not* help us.
SI sections are not indexed - citations you put there will not count into any citation statistics
But we need these citations in order to attract the funding resources that allow us to do what we are doing

Therefore, if you are a happy ORCA user, please consider citing a few of the papers listed below in the main body of your paper

In addition to the list printed below, the program has created the file 15h_x2csvp.bibtex that contains the list in bibtex format
You can import this file easily into all common literature databanks and citation aid programs

It goes without saying that in many instances, there are alternative algorithms to achieve similar
results as the ones you have gotten from ORCA. It is, of course, also the case that in some instances
ORCA just re-implements algorithms worked out by others. We are fully aware of that and we are also
fully appreciative of our colleagues work. Hence this citation list should not be read as indicating
that the listed papers, which are focused on our own work, are the only ones worth citing. It simply
meant to make it easier for users to cite ORCA specific papers. It is not a substitute for doing your
own literature research and citing the relevant literature in a scientifically appropriate manner.

List of essential papers. We consider these as the minimum necessary citations

  1. Neese, F.
     Software update: the ORCA program system, version 6.0
     WIRES Comput. Molec. Sci. 2025 15(1), e70019
     doi.org/10.1002/wcms.70019

List of papers to cite with high priority. The work reported in these papers was absolutely
necessary for this run to complete.
Our perspective: the developers of density functionals and basis sets usually get cited in chemistry papers
Good! But without the algorithms to do something with them, the functionals or basis sets would not do anything.
Hence, in our opinion, the algorithm design and method developments papers are equally worthy of getting cited

  1. Neese, F.
     An improvement of the resolution of the identity approximation for the formation of the Coulomb matrix
     J. Comp. Chem. 2003 24(14), 1740-1747
     doi.org/10.1002/jcc.10318
  2. Neese, F.
     The SHARK Integral Generation and Digestion System
     J. Comp. Chem. 2022 44(3), 381
     doi.org/10.1002/jcc.26942

List of suggested additional citations. These are papers that are important in the 'surrounding' of 
of this run, or papers that preceded the highly important papers. If you like your results we are grateful for a citation.

  1. Neese, F.
     The ORCA program system
     WIRES Comput. Molec. Sci. 2012 2(1), 73-78
     doi.org/10.1002/wcms.81
  2. Neese, F.
     Software update: the ORCA program system, version 4.0
     WIRES Comput. Molec. Sci. 2018 8(1), 1-6
     doi.org/10.1002/wcms.1327
  3. Neese, F.; Wennmohs, F.; Becker, U.; Riplinger, C.
     The ORCA quantum chemistry program package
     J. Chem. Phys. 2020 152(22), 224108
     doi.org/10.1063/5.0004608
  4. Neese, F.
     Software update: The ORCA program system—Version 5.0
     WIRES Comput. Molec. Sci. 2022 12(1), e1606
     doi.org/10.1002/wcms.1606

List of optional additional citations

  1. Neese, F.
     Approximate second-order SCF convergence for spin unrestricted wavefunctions
     Chem. Phys. Lett. 2000 325(1-3), 93-98
     doi.org/10.1016/s0009-2614(00)00662-x

Timings for individual modules:

Sum of individual times          ...      714.696 sec (=  11.912 min)
Startup calculation              ...       30.938 sec (=   0.516 min)   4.3 %
SCF iterations                   ...      682.877 sec (=  11.381 min)  95.5 %
Property calculations            ...        0.315 sec (=   0.005 min)   0.0 %
Orbital localization             ...        0.566 sec (=   0.009 min)   0.1 %
                             ****ORCA TERMINATED NORMALLY****
TOTAL RUN TIME: 0 days 0 hours 11 minutes 54 seconds 909 msec
