
                                 *****************
                                 * O   R   C   A *
                                 *****************

                                            #,                                       
                                            ###                                      
                                            ####                                     
                                            #####                                    
                                            ######                                   
                                           ########,                                 
                                     ,,################,,,,,                         
                               ,,#################################,,                 
                          ,,##########################################,,             
                       ,#########################################, ''#####,          
                    ,#############################################,,   '####,        
                  ,##################################################,,,,####,       
                ,###########''''           ''''###############################       
              ,#####''   ,,,,##########,,,,          '''####'''          '####       
            ,##' ,,,,###########################,,,                        '##       
           ' ,,###''''                  '''############,,,                           
         ,,##''                                '''############,,,,        ,,,,,,###''
      ,#''                                            '''#######################'''  
     '                                                          ''''####''''         
             ,#######,   #######,   ,#######,      ##                                
            ,#'     '#,  ##    ##  ,#'     '#,    #''#        ,####,    ,#,          
            ##       ##  ##   ,#'  ##            #'  '#       #'       ,# #          
            ##       ##  #######   ##           ,######,      #####,      #          
            '#,     ,#'  ##    ##  '#,     ,#' ,#      #,     #,   #      #          
             '#######'   ##     ##  '#######'  #'      '#     '####' #    #          



                #########################################################
                #                        -***-                          #
                #          Department of theory and spectroscopy        #
                #                                                       #
                #                      Frank Neese                      #
                #                                                       #
                #     Directorship, Architecture, Infrastructure        #
                #                    SHARK, DRIVERS                     #
                #        Core code/Algorithms in most modules           #
                #                                                       #
                #        Max Planck Institute fuer Kohlenforschung      #
                #                Kaiser Wilhelm Platz 1                 #
                #                 D-45470 Muelheim/Ruhr                 #
                #                      Germany                          #
                #                                                       #
                #                  All rights reserved                  #
                #                        -***-                          #
                #########################################################


                         Program Version 6.1.1  -  RELEASE   -
                                (GIT: $487d211c$)
                          ($2025-11-21 10:33:24 +0100$)


 With contributions from (in alphabetic order):
[Max-Planck-Institut fuer Kohlenforschung]                               
  Daniel Aravena         : Magnetic Suceptibility                        
  Michael Atanasov       : Ab Initio Ligand Field Theory (pilot matlab implementation)
  Alexander A. Auer      : GIAO ZORA, VPT2 properties, NMR spectrum      
  Ute Becker             : All parallelization in ORCA, NUMFREQ, NUMCALC 
  Giovanni Bistoni       : ED, misc. LED, open-shell LED, HFLD           
  Dmytro Bykov           : pre 5.0 version of the SCF Hessian            
  Marcos Casanova-Páez   : Triplet and SCS-CIS(D). UHF-(DLPNO)-IP/EA/STEOM-CCSD. UHF-CVS-IP/STEOM-CCSD   
  Vijay G. Chilkuri      : MRCI spin determinant printing, contributions to CSF-ICE 
  Pauline Colinet        : FMM embedding                                 
  Dipayan Datta          : RHF DLPNO-CCSD density                        
  Achintya Kumar Dutta   : EOM-CC, STEOM-CC                              
  Nicolas Foglia         : Exact transition moments, OPA infrastructure, MCD improvements    
  Dmitry Ganyushin       : Spin-Orbit,Spin-Spin,Magnetic field MRCI      
  Miquel Garcia-Rates    : C-PCM and meta-GGA Hessian, CCSD/C-PCM, Gaussian charge scheme 
  Tiago L. C. Gouveia    : GS-ROHF, GS-ROCIS                             
  Yang Guo               : DLPNO-NEVPT2, F12-NEVPT2, CIM, IAO-localization        
  Andreas Hansen         : Spin unrestricted coupled pair/coupled cluster methods 
  Ingolf Harden          : AUTO-CI MPn and infrastructure                
  Benjamin Helmich-Paris : MC-RPA, TRAH-(SCF,CASSCF), AVAS, COSX integrals, SCF dyn. polar., MC-PDFT, srDFT 
  Lee Huntington         : MR-EOM, pCC                                   
  Robert Izsak           : Overlap fitted RIJCOSX, COSX-SCS-MP3, EOM     
  Riya Kayal             : Wick's Theorem for AUTO-CI, AUTO-CI UHF-CCSDT 
  Emily Kempfer          : AUTO-CI RHF CISDT and CCSDT, approximate NEVPT4
  Christian Kollmar      : KDIIS, OOCD, Brueckner-CCSD(T), CCSD density, CASPT2, CASPT2-K, improved NEVPT2 
  Axel Koslowski         : Symmetry handling                             
  Simone Kossmann        : meta-GGA functionals, TD-DFT gradient, OOMP2, (MP2 Hessian; deprecated post 5.0) 
  Lucas Lang             : DCDCAS, Hyperfine gauge corrections, ICE-SOC+SSC
  Marvin Lechner         : AUTO-CI (C++ implementation), FIC-MRCC        
  Spencer Leger          : CASSCF response                               
  Dagmar Lenk            : GEPOL surface, SMD, ORCA-2-JSON               
  Dimitrios Liakos       : Extrapolation schemes; Compound Job, Property file
  Dimitrios Manganas     : Further ROCIS development; embedding schemes. LFT, Crystal Embedding 
  Dimitrios Pantazis     : SARC Basis sets                               
  Anastasios Papadopoulos: AUTO-CI, single reference methods and gradients 
  Taras Petrenko         : pre 6.0 DFT Hessian and TD-DFT gradient,  ECA, NRVS 
  Petra Pikulova         : Analytic Raman intensities                    
  Peter Pinski           : DLPNO-MP2, DLPNO-MP2 Gradient                 
  Shashank Vittal Rao    : ES-AILFT, MagRelax                            
  Christoph Reimann      : Effective Core Potentials                     
  Marius Retegan         : Local ZFS, SOC                                
  Christoph Riplinger    : Optimizer, TS searches, QM/MM, DLPNO-CCSD(T), (RO)-DLPNO pert. Triples 
  Michael Roemelt        : Original ROCIS implementation, recursive CI coupling coefficients
  Masaaki Saitow         : Open-shell DLPNO-CCSD energy and density      
  Barbara Sandhoefer     : DKH picture change effects                    
  Yorick L. A. Schmerwitz: GMF and freeze-and-release deltaSCF, NEB S-IDPP initial path                    
  Kantharuban Sivalingam : CASSCF convergence/infrastructure, NEVPT2, NEVPT3, NEVPT4(SD), FIC-MRCI and CEPA variants
  Bernardo de Souza      : ESD, SOC TD-DFT                               
  Georgi L. Stoychev     : AutoAux, RI-MP2 NMR, DLPNO-MP2 response, X2C  
  Van Anh Tran           : RI-MP2 g-tensors                              
  Willem Van den Heuvel  : Paramagnetic NMR                              
  Zikuan Wang            : NOTCH, Electric field optimization            
  Frank Wennmohs         : Technical directorship and infrastructure     
  Hang Xu                : AUTO-CI-Response properties                   
                                                                         
[FACCTs GmbH]                                                            
  Markus Bursch, Nicolas Foglia, Miquel Garcia-Rates, Ingolf Harden, Hagen Neugebauer, Anastasios Papadopoulos, 
  Christoph Riplinger, Bernardo de Souza, Georgi L. Stoychev                                                    
                                                                 
  APM, various basis sets, CI-OPT, improved COSX, DLPNO-Multilevel,           
  DOCKER, DRACO, updates on ESD, Fragmentator, GOAT, IRC, LR-CPCM, L-BFGS, MBIS, meta-GGA TD-DFT gradient, ML-optimized integration grids, 
  MM, NACMEs, nearIR, NEB, NEB-TS, NL-DFT gradient (VV10), 2- and 3-layer-ONIOM, interface openCOSMO-RS, QMMM,   
  Crystal-QMMM, RESP, rigid body optimization, SF, symmetry and pop. for TD-DFT, various functionals, SOLVATOR                                   
                                                                         
[Other institutions]                                                     
  V. Asgeirsson          : NEB                                           
  Christoph Bannwarth    : sTDA-DFT, sTD-DFT, PBEh-3c, B97-3c, D3        
  Giovanni Bistoni       : ETS/NOCV, ADLD/ADEX, COVALED                  
  Martin Brehm           : Molecular dynamics                            
  Ronald Cardenas        : ETS/NOCV                                      
  Martina Colucci        : COVALED                                       
  Sebastian Ehlert       : rSCAN, r2SCAN, r2SCAN-3c, D4, dhf basis sets  
  Marvin Friede          : D4 for Fr, Ra, Ac-Lr                          
  Lars Goerigk           : TD-DFT with DH, B97 family of functionals     
  Stefan Grimme          : VdW corrections, initial TS optimization, DFT functionals, gCP, sTDA/sTD-DF 
  Waldemar Hujo          : DFT-NL                                        
  H. Jonsson             : NEB                                           
  Holger Kruse           : gCP                                           
  Marcel Mueller         : wB97X-3c, vDZP basis set                      
  Hagen Neugebauer       : wr2SCAN, Native XTB                           
  Gianluca Regni         : ADLD/ADEX                                     
  Tobias Risthaus        : pre 6.0 range-separated hybrid DFT and stability analysis
  Lukas Wittmann         : regularized MP2, r2SCAN double-hybrids, wr2SCAN        
                                                                         
We gratefully acknowledge several colleagues who have allowed us to      
interface, adapt or use parts of their codes:                            
  Ed Valeev, F. Pavosevic, A. Kumar             : LibInt (2-el integral package), F12 methods 
  Garnet Chan, S. Sharma, J. Yang, R. Olivares  : DMRG                   
  Ulf Ekstrom                                   : XCFun DFT Library      
  Mihaly Kallay                                 : mrcc  (arbitrary order and MRCC methods)
  Frank Weinhold                                : gennbo (NPA and NBO analysis)           
  Simon Mueller                                 : openCOSMO-RS                            
  Christopher J. Cramer and Donald G. Truhlar   : smd solvation model                     
  S Lehtola, MJT Oliveira, MAL Marques          : LibXC Library                           
  Liviu Ungur et al                             : ANISO software                          


 Your calculation uses the libint2 library for the computation of 2-el integrals
 For citations please refer to: http://libint.valeyev.net

 Your ORCA version has been built with support for libXC version: 7.0.0
 For citations please refer to: https://libxc.gitlab.io

 This ORCA versions uses:
   CBLAS   interface :  Fast vector & matrix operations
   LAPACKE interface :  Fast linear algebra routines
   SCALAPACK package :  Parallel linear algebra routines
   Shared memory     :  Shared parallel matrices
   BLAS/LAPACK       :  OpenBLAS 0.3.29  USE64BITINT DYNAMIC_ARCH NO_AFFINITY Haswell SINGLE_THREADED
        Core in use  :  Haswell
   Copyright (c) 2011-2014, The OpenBLAS Project


  ***********************************
  * Starting time: Fri Jul 10 12:16:47 2026
  * Host name:     ylva-work-pc
  * Process ID:    384573
  * Working dir.:  /home/ylvao/work/projects/TPhP_bsse/orca/opt1_bp86/for_mrchem_init_guess
  ***********************************

Warning: RI is on but no J-basis has been assigned. Assigning Def2/J (nothing to worry about!)
================================================================================

----- Orbital basis set information -----
Your calculation utilizes the basis: x2c-SVPall
   P. Pollak; F. Weigend. J. Chem. Theory Comput., 13, 3696 – 3705, (2017).
   Y. J. Franzke; R. Treß; T. M. Pazedera; F. Weigend.
   Phys. Chem. Chem. Phys. 21, 16658 (2019).

----- AuxJ basis set information -----
Your calculation utilizes the auxiliary basis: def2/J
   H-Rn: F. Weigend, Phys. Chem. Chem. Phys. 8, 1057 (2006).
   Fr-Lr: K. Eichkorn, F. Weigend, O. Treutler, R. Ahlrichs; Theor. Chem. Acc. 97, 119 (1997).

================================================================================
                                        WARNINGS
                       Please study these warnings very carefully!
================================================================================

WARNING: The globally-selected AuxJ basis set is optimized for use with ECPs
         Make sure a suitable alternative is explicitly given all heavy elements (Z>36)

================================================================================
                                       INPUT FILE
================================================================================
NAME = 1b_x2csvp.inp
|  1> ! BP86 X2C-SVPall VeryTightSCF defgrid3
|  2> 
|  3> %loc
|  4>   LocMet NEWBOYS
|  5>   Occ true
|  6> end
|  7> 
|  8> *xyz 0 1
|  9>   Ru          0.03619028696395      0.60243955989531      0.45744310006533
| 10>   P           2.22988902941265      1.08080736263894      0.00663317712692
| 11>   P          -2.21355256077573      1.06572696199755      0.29030991444290
| 12>   P           0.00422697637652     -1.73832860804498      0.13188653652330
| 13>   C           3.10840490295686      0.03130229649509     -1.22131027675437
| 14>   C           5.31658854235128      0.96403748768933      3.47357070904612
| 15>   C           4.31751220542665     -0.00485401525810      3.35875630254901
| 16>   C           3.38457481129996      0.07405112424022      2.32569189302340
| 17>   C           2.48502069387103      2.75531305283417     -0.73154230168009
| 18>   C           1.95055857608548      3.87391841914672     -0.07598115096026
| 19>   C           2.13556833740606      5.15695210134556     -0.58573073523882
| 20>   C           2.85245958799445      5.34438930085250     -1.77108914884186
| 21>   C           3.38904607734315      4.23999814587841     -2.42995422655437
| 22>   C           3.21241991812028      2.95392607171384     -1.90977937563015
| 23>   C          -2.56685821481711      2.81177993722875     -0.21761583913372
| 24>   C           2.38563885967328     -0.38392979051746     -2.34607731474073
| 25>   C          -1.59379464867023      3.55890790757343     -0.89261669861561
| 26>   C          -1.86810753570451      4.85525717691407     -1.33184592317573
| 27>   C          -3.11975741266166      5.42532295201380     -1.09816421966234
| 28>   C          -4.09749919362349      4.68783166459389     -0.42783413861212
| 29>   C          -3.82350623738975      3.39006163642485      0.00516450142965
| 30>   C          -3.32093721873451      0.91655047731761      1.75980537377906
| 31>   C          -2.76447081178405      1.22475611008415      3.00763772606254
| 32>   C          -3.52642531294189      1.14203444389690      4.17250407350723
| 33>   C          -4.86356000643442      0.74366660220756      4.10583328759724
| 34>   C          -5.43215075286579      0.44698982384200      2.86685873670762
| 35>   C           2.95979372254906     -1.23589146501038     -3.28812526607700
| 36>   C          -4.66767956586853      0.53888384206094      1.70178681307668
| 37>   C          -3.14259319420158      0.17028264074249     -1.02725811771264
| 38>   C          -3.21694663097720      0.71625861885612     -2.31628418988650
| 39>   C          -3.78208163174574     -0.00887916505071     -3.36618091534975
| 40>   C          -4.28241411037869     -1.29284623993629     -3.14454669178344
| 41>   C          -4.22320658688338     -1.84002740197045     -1.86281577663765
| 42>   C          -3.66061306629578     -1.11381312674512     -0.81301523165483
| 43>   C           1.42136879494538     -2.62299696554039      0.92044489981565
| 44>   C           1.35596467401366     -2.98728060551867      2.27270860317532
| 45>   C           2.47262723034819     -3.50858680404338      2.92752920200343
| 46>   C           4.27620606840267     -1.67250809862258     -3.11903951280407
| 47>   C           3.67532343912586     -3.67654370111994      2.23906221346150
| 48>   C           3.74569260091813     -3.33107345799744      0.88948278901111
| 49>   C           2.62836161388611     -2.81146926173454      0.23501635316772
| 50>   C          -0.04673830891442     -2.47597922003972     -1.55114174334353
| 51>   C           0.45154596305658     -3.75154664384621     -1.85008678962985
| 52>   C           0.35677110334069     -4.26343501055413     -3.14443216717484
| 53>   C          -0.25183472892195     -3.51216221817497     -4.15270508836146
| 54>   C          -0.76473151997425     -2.24816415907424     -3.85881889561970
| 55>   C          -0.65619858207549     -1.73322021159321     -2.56684231848646
| 56>   C          -1.40831119493772     -2.61008912098298      0.94900994920336
| 57>   C           5.01413078230064     -1.23838903820938     -2.01572612203697
| 58>   C          -1.99519190191732     -3.77392026808572      0.43712994995710
| 59>   C          -3.10597761420888     -4.34141087131052      1.06324287456060
| 60>   C          -3.64402766612623     -3.75809012195330      2.21292295964427
| 61>   C          -3.05452481968054     -2.60973262557994      2.74289247909344
| 62>   C          -1.94556413237091     -2.04571163463117      2.11195765273469
| 63>   C           4.43409695067799     -0.38964045985579     -1.07022033449278
| 64>   C           3.44759002148056      1.10944821166223      1.38461261130144
| 65>   C           4.45385450180034      2.07578462085620      1.50344890698001
| 66>   C           5.38020848424963      2.00551540983533      2.54642251331172
| 67>   H           1.37149654087923      3.73293415801270      0.83972223237532
| 68>   H           1.70962717493055      6.01539469343097     -0.05808384838867
| 69>   H           2.99167263203401      6.35030258578571     -2.17810392675134
| 70>   H           3.95306512016142      4.37402367316753     -3.35769345002290
| 71>   H           3.64768599549450      2.10246477740580     -2.43650168873778
| 72>   H           2.70509087330834     -2.55452363312508     -0.82138419490576
| 73>   H           4.67910263595182     -3.45862110489542      0.33413423203093
| 74>   H           4.55299444127187     -4.08025373428142      2.75202673940158
| 75>   H           2.39937835278055     -3.78621940463694      3.98319733409954
| 76>   H           0.42452921004873     -2.86187884180618      2.82956502072550
| 77>   H          -1.60891404165181     -4.22896390949838     -0.47638654501218
| 78>   H          -3.56183754536320     -5.24239326035725      0.64196752831211
| 79>   H          -4.52372150616283     -4.19748627202403      2.69220913096809
| 80>   H          -3.46929307380594     -2.13035518379662      3.63420961240689
| 81>   H          -1.51399136813202     -1.12733333300693      2.50967505279103
| 82>   H           2.60287415645422     -0.68300142207687      2.24332362452564
| 83>   H           4.25838408529296     -0.82766523226648      4.07699134817291
| 84>   H           6.04523507914458      0.90937474870836      4.28786419758649
| 85>   H           6.15824159914486      2.76976462940037      2.63243230892993
| 86>   H           4.51942607808340      2.88989941085181      0.77758821976267
| 87>   H           5.01438759876979     -0.07449245027816     -0.20020006795354
| 88>   H           1.35411175899292     -0.04924039988355     -2.46270281661813
| 89>   H           2.36808762092936     -1.57281630479432     -4.14407120107729
| 90>   H           4.72850382874376     -2.35010815061649     -3.84921538274736
| 91>   H           6.04815044820478     -1.57065320790886     -1.88320947422293
| 92>   H          -4.60126707311058      2.83122093666205      0.52955345637766
| 93>   H          -5.08163994752431      5.12569568651981     -0.23676397007908
| 94>   H          -3.33435676692592      6.44389629296385     -1.43527338439319
| 95>   H          -1.09022781058613      5.42056266984424     -1.85379116145359
| 96>   H          -0.61181697840964      3.11690706076952     -1.06697780615913
| 97>   H          -1.71504870974255      1.52664795770363      3.06239151816260
| 98>   H          -5.13213946708275      0.30974275198034      0.74036010733993
| 99>   H          -6.48089550676560      0.14232829597172      2.80321025492522
|100>   H          -3.07323429393645      1.38718197923641      5.13750001338911
|101>   H          -5.46245308240168      0.67027415267493      5.01836412156527
|102>   H          -3.63441980953013     -1.55782021887959      0.18136084456956
|103>   H          -2.82128664994905      1.71626557908143     -2.50820399541937
|104>   H          -3.83069843211162      0.43550678118916     -4.36479447883516
|105>   H          -4.72020921669881     -1.86403103578901     -3.96834330681989
|106>   H          -4.61280772584365     -2.84392647324995     -1.67137292003245
|107>   H           0.92134627059726     -4.35408861629441     -1.06893582703995
|108>   H          -1.03304307096277     -0.73456899348900     -2.34034397676601
|109>   H          -1.25107270792836     -1.65305100390354     -4.63678697818999
|110>   H          -0.32746073068281     -3.91524775544823     -5.16709055148187
|111>   H           0.75830113503765     -5.25665531083535     -3.36582125474049
|112>   H           0.24256997707423      0.01080726843056      2.07758887403617
|113>   H           0.21396547353258      0.90110975452540      2.13070837039056
|114>   H           0.04172128911973      2.18746312255201      0.68884302963978
|115>   H          -0.10366545516975      0.92565863643754     -1.12623455634315
|116> **                         ****END OF INPUT****
================================================================================

                       ****************************
                       * Single Point Calculation *
                       ****************************

---------------------------------
CARTESIAN COORDINATES (ANGSTROEM)
---------------------------------
  Ru     0.036190    0.602440    0.457443
  P      2.229889    1.080807    0.006633
  P     -2.213553    1.065727    0.290310
  P      0.004227   -1.738329    0.131887
  C      3.108405    0.031302   -1.221310
  C      5.316589    0.964037    3.473571
  C      4.317512   -0.004854    3.358756
  C      3.384575    0.074051    2.325692
  C      2.485021    2.755313   -0.731542
  C      1.950559    3.873918   -0.075981
  C      2.135568    5.156952   -0.585731
  C      2.852460    5.344389   -1.771089
  C      3.389046    4.239998   -2.429954
  C      3.212420    2.953926   -1.909779
  C     -2.566858    2.811780   -0.217616
  C      2.385639   -0.383930   -2.346077
  C     -1.593795    3.558908   -0.892617
  C     -1.868108    4.855257   -1.331846
  C     -3.119757    5.425323   -1.098164
  C     -4.097499    4.687832   -0.427834
  C     -3.823506    3.390062    0.005165
  C     -3.320937    0.916550    1.759805
  C     -2.764471    1.224756    3.007638
  C     -3.526425    1.142034    4.172504
  C     -4.863560    0.743667    4.105833
  C     -5.432151    0.446990    2.866859
  C      2.959794   -1.235891   -3.288125
  C     -4.667680    0.538884    1.701787
  C     -3.142593    0.170283   -1.027258
  C     -3.216947    0.716259   -2.316284
  C     -3.782082   -0.008879   -3.366181
  C     -4.282414   -1.292846   -3.144547
  C     -4.223207   -1.840027   -1.862816
  C     -3.660613   -1.113813   -0.813015
  C      1.421369   -2.622997    0.920445
  C      1.355965   -2.987281    2.272709
  C      2.472627   -3.508587    2.927529
  C      4.276206   -1.672508   -3.119040
  C      3.675323   -3.676544    2.239062
  C      3.745693   -3.331073    0.889483
  C      2.628362   -2.811469    0.235016
  C     -0.046738   -2.475979   -1.551142
  C      0.451546   -3.751547   -1.850087
  C      0.356771   -4.263435   -3.144432
  C     -0.251835   -3.512162   -4.152705
  C     -0.764732   -2.248164   -3.858819
  C     -0.656199   -1.733220   -2.566842
  C     -1.408311   -2.610089    0.949010
  C      5.014131   -1.238389   -2.015726
  C     -1.995192   -3.773920    0.437130
  C     -3.105978   -4.341411    1.063243
  C     -3.644028   -3.758090    2.212923
  C     -3.054525   -2.609733    2.742892
  C     -1.945564   -2.045712    2.111958
  C      4.434097   -0.389640   -1.070220
  C      3.447590    1.109448    1.384613
  C      4.453855    2.075785    1.503449
  C      5.380208    2.005515    2.546423
  H      1.371497    3.732934    0.839722
  H      1.709627    6.015395   -0.058084
  H      2.991673    6.350303   -2.178104
  H      3.953065    4.374024   -3.357693
  H      3.647686    2.102465   -2.436502
  H      2.705091   -2.554524   -0.821384
  H      4.679103   -3.458621    0.334134
  H      4.552994   -4.080254    2.752027
  H      2.399378   -3.786219    3.983197
  H      0.424529   -2.861879    2.829565
  H     -1.608914   -4.228964   -0.476387
  H     -3.561838   -5.242393    0.641968
  H     -4.523722   -4.197486    2.692209
  H     -3.469293   -2.130355    3.634210
  H     -1.513991   -1.127333    2.509675
  H      2.602874   -0.683001    2.243324
  H      4.258384   -0.827665    4.076991
  H      6.045235    0.909375    4.287864
  H      6.158242    2.769765    2.632432
  H      4.519426    2.889899    0.777588
  H      5.014388   -0.074492   -0.200200
  H      1.354112   -0.049240   -2.462703
  H      2.368088   -1.572816   -4.144071
  H      4.728504   -2.350108   -3.849215
  H      6.048150   -1.570653   -1.883209
  H     -4.601267    2.831221    0.529553
  H     -5.081640    5.125696   -0.236764
  H     -3.334357    6.443896   -1.435273
  H     -1.090228    5.420563   -1.853791
  H     -0.611817    3.116907   -1.066978
  H     -1.715049    1.526648    3.062392
  H     -5.132139    0.309743    0.740360
  H     -6.480896    0.142328    2.803210
  H     -3.073234    1.387182    5.137500
  H     -5.462453    0.670274    5.018364
  H     -3.634420   -1.557820    0.181361
  H     -2.821287    1.716266   -2.508204
  H     -3.830698    0.435507   -4.364794
  H     -4.720209   -1.864031   -3.968343
  H     -4.612808   -2.843926   -1.671373
  H      0.921346   -4.354089   -1.068936
  H     -1.033043   -0.734569   -2.340344
  H     -1.251073   -1.653051   -4.636787
  H     -0.327461   -3.915248   -5.167091
  H      0.758301   -5.256655   -3.365821
  H      0.242570    0.010807    2.077589
  H      0.213965    0.901110    2.130708
  H      0.041721    2.187463    0.688843
  H     -0.103665    0.925659   -1.126235

----------------------------
CARTESIAN COORDINATES (A.U.)
----------------------------
  NO LB      ZA    FRAG     MASS         X           Y           Z
   0 Ru   44.0000    0   101.070    0.068390    1.138446    0.864442
   1 P    15.0000    0    30.974    4.213880    2.042430    0.012535
   2 P    15.0000    0    30.974   -4.183008    2.013932    0.548606
   3 P    15.0000    0    30.974    0.007988   -3.284965    0.249229
   4 C     6.0000    0    12.011    5.874034    0.059153   -2.307942
   5 C     6.0000    0    12.011   10.046896    1.821767    6.564097
   6 C     6.0000    0    12.011    8.158916   -0.009173    6.347130
   7 C     6.0000    0    12.011    6.395919    0.139936    4.394921
   8 C     6.0000    0    12.011    4.696009    5.206787   -1.382415
   9 C     6.0000    0    12.011    3.686022    7.320645   -0.143584
  10 C     6.0000    0    12.011    4.035639    9.745227   -1.106871
  11 C     6.0000    0    12.011    5.390367   10.099432   -3.346873
  12 C     6.0000    0    12.011    6.404369    8.012435   -4.591948
  13 C     6.0000    0    12.011    6.070594    5.582111   -3.608960
  14 C     6.0000    0    12.011   -4.850659    5.313494   -0.411234
  15 C     6.0000    0    12.011    4.508204   -0.725522   -4.433444
  16 C     6.0000    0    12.011   -3.011835    6.725361   -1.686801
  17 C     6.0000    0    12.011   -3.530212    9.175106   -2.516824
  18 C     6.0000    0    12.011   -5.895487   10.252375   -2.075230
  19 C     6.0000    0    12.011   -7.743151    8.858718   -0.808489
  20 C     6.0000    0    12.011   -7.225380    6.406288    0.009759
  21 C     6.0000    0    12.011   -6.275662    1.732029    3.325550
  22 C     6.0000    0    12.011   -5.224093    2.314454    5.683612
  23 C     6.0000    0    12.011   -6.663978    2.158132    7.884890
  24 C     6.0000    0    12.011   -9.190796    1.405326    7.758900
  25 C     6.0000    0    12.011  -10.265277    0.844688    5.417578
  26 C     6.0000    0    12.011    5.593200   -2.335496   -6.213656
  27 C     6.0000    0    12.011   -8.820636    1.018343    3.215911
  28 C     6.0000    0    12.011   -5.938640    0.321788   -1.941237
  29 C     6.0000    0    12.011   -6.079148    1.353533   -4.377143
  30 C     6.0000    0    12.011   -7.147099   -0.016779   -6.361160
  31 C     6.0000    0    12.011   -8.092590   -2.443125   -5.942332
  32 C     6.0000    0    12.011   -7.980704   -3.477148   -3.520212
  33 C     6.0000    0    12.011   -6.917556   -2.104802   -1.536376
  34 C     6.0000    0    12.011    2.685998   -4.956746    1.739389
  35 C     6.0000    0    12.011    2.562402   -5.645142    4.294797
  36 C     6.0000    0    12.011    4.672588   -6.630268    5.532228
  37 C     6.0000    0    12.011    8.080858   -3.160582   -5.894130
  38 C     6.0000    0    12.011    6.945355   -6.947661    4.231214
  39 C     6.0000    0    12.011    7.078333   -6.294817    1.680879
  40 C     6.0000    0    12.011    4.966884   -5.312907    0.444117
  41 C     6.0000    0    12.011   -0.088323   -4.678923   -2.931233
  42 C     6.0000    0    12.011    0.853298   -7.089396   -3.496157
  43 C     6.0000    0    12.011    0.674200   -8.056725   -5.942116
  44 C     6.0000    0    12.011   -0.475899   -6.637025   -7.847475
  45 C     6.0000    0    12.011   -1.445133   -4.248415   -7.292111
  46 C     6.0000    0    12.011   -1.240036   -3.275312   -4.850629
  47 C     6.0000    0    12.011   -2.661322   -4.932354    1.793369
  48 C     6.0000    0    12.011    9.475334   -2.340216   -3.809170
  49 C     6.0000    0    12.011   -3.770366   -7.131676    0.826056
  50 C     6.0000    0    12.011   -5.869447   -8.204078    2.009238
  51 C     6.0000    0    12.011   -6.886214   -7.101761    4.181818
  52 C     6.0000    0    12.011   -5.772215   -4.931680    5.183316
  53 C     6.0000    0    12.011   -3.676583   -3.865835    3.991022
  54 C     6.0000    0    12.011    8.379229   -0.736314   -2.022423
  55 C     6.0000    0    12.011    6.515001    2.096553    2.616539
  56 C     6.0000    0    12.011    8.416565    3.922664    2.841107
  57 C     6.0000    0    12.011   10.167121    3.789875    4.812041
  58 H     1.0000    0     1.008    2.591753    7.054223    1.586845
  59 H     1.0000    0     1.008    3.230727   11.367449   -0.109763
  60 H     1.0000    0     1.008    5.653442   12.000333   -4.116020
  61 H     1.0000    0     1.008    7.470210    8.265707   -6.345121
  62 H     1.0000    0     1.008    6.893128    3.973083   -4.604321
  63 H     1.0000    0     1.008    5.111881   -4.827350   -1.552191
  64 H     1.0000    0     1.008    8.842223   -6.535847    0.631422
  65 H     1.0000    0     1.008    8.603913   -7.710562    5.200577
  66 H     1.0000    0     1.008    4.534168   -7.154918    7.527152
  67 H     1.0000    0     1.008    0.802244   -5.408167    5.347103
  68 H     1.0000    0     1.008   -3.040407   -7.991584   -0.900240
  69 H     1.0000    0     1.008   -6.730897   -9.906688    1.213143
  70 H     1.0000    0     1.008   -8.548595   -7.932100    5.087538
  71 H     1.0000    0     1.008   -6.556014   -4.025788    6.867661
  72 H     1.0000    0     1.008   -2.861029   -2.130351    4.742599
  73 H     1.0000    0     1.008    4.918719   -1.290686    4.239267
  74 H     1.0000    0     1.008    8.047180   -1.564061    7.704397
  75 H     1.0000    0     1.008   11.423839    1.718469    8.102889
  76 H     1.0000    0     1.008   11.637390    5.234097    4.974576
  77 H     1.0000    0     1.008    8.540478    5.461118    1.469429
  78 H     1.0000    0     1.008    9.475819   -0.140770   -0.378323
  79 H     1.0000    0     1.008    2.558900   -0.093051   -4.653834
  80 H     1.0000    0     1.008    4.475037   -2.972192   -7.831160
  81 H     1.0000    0     1.008    8.935577   -4.441061   -7.273963
  82 H     1.0000    0     1.008   11.429348   -2.968104   -3.558750
  83 H     1.0000    0     1.008   -8.695135    5.350232    1.000711
  84 H     1.0000    0     1.008   -9.602908    9.686161   -0.447419
  85 H     1.0000    0     1.008   -6.301021   12.177199   -2.712274
  86 H     1.0000    0     1.008   -2.060232   10.243379   -3.503158
  87 H     1.0000    0     1.008   -1.156167    5.890101   -2.016296
  88 H     1.0000    0     1.008   -3.240972    2.884947    5.787081
  89 H     1.0000    0     1.008   -9.698338    0.585329    1.399078
  90 H     1.0000    0     1.008  -12.247118    0.268962    5.297300
  91 H     1.0000    0     1.008   -5.807571    2.621394    9.708468
  92 H     1.0000    0     1.008  -10.322540    1.266635    9.483334
  93 H     1.0000    0     1.008   -6.868058   -2.943854    0.342722
  94 H     1.0000    0     1.008   -5.331459    3.243272   -4.739819
  95 H     1.0000    0     1.008   -7.238971    0.822989   -8.248266
  96 H     1.0000    0     1.008   -8.919903   -3.522508   -7.499082
  97 H     1.0000    0     1.008   -8.716943   -5.374242   -3.158437
  98 H     1.0000    0     1.008    1.741092   -8.228035   -2.019996
  99 H     1.0000    0     1.008   -1.952168   -1.388134   -4.422609
 100 H     1.0000    0     1.008   -2.364185   -3.123814   -8.762258
 101 H     1.0000    0     1.008   -0.618811   -7.398746   -9.764386
 102 H     1.0000    0     1.008    1.432981   -9.933639   -6.360480
 103 H     1.0000    0     1.008    0.458391    0.020423    3.926074
 104 H     1.0000    0     1.008    0.404336    1.702851    4.026455
 105 H     1.0000    0     1.008    0.078842    4.133706    1.301725
 106 H     1.0000    0     1.008   -0.195899    1.749241   -2.128275

--------------------------------
INTERNAL COORDINATES (ANGSTROEM)
--------------------------------
 Ru     0   0   0     0.000000000000     0.00000000     0.00000000
 P      1   0   0     2.290061028432     0.00000000     0.00000000
 P      1   2   0     2.303022275107   151.57648864     0.00000000
 P      1   2   3     2.363515251766   101.11141978   137.70987447
 C      2   1   3     1.838775720380   118.02800388   253.43124828
 C      2   1   3     4.643382919500   118.98283681   132.72082420
 C      6   2   1     1.396455018762    58.69937446    41.20535308
 C      7   6   2     1.394209552624   120.02584150   358.44416268
 C      2   1   3     1.847691670766   113.59232968    10.85454467
 C      9   2   1     1.402386588364   118.91422050    52.89071984
 C     10   9   2     1.392928095816   120.86554960   179.03286154
 C     11  10   9     1.397905696973   120.12800679     0.51043030
 C     12  11  10     1.393451855776   119.48183833   359.43229670
 C     13  12  11     1.398484914328   120.28782973     0.00000000
 C      3   1   2     1.852434735325   113.31735611   342.23982620
 C      5   2   1     1.399967617179   117.33279773    38.45152822
 C     15   3   1     1.400242503331   120.16995462    22.12701287
 C     17  15   3     1.395955335898   120.70508090   177.19884549
 C     18  17  15     1.395066142154   120.20347230     0.20830342
 C     19  18  17     1.396142831812   119.53098591   359.69487421
 C     20  19  18     1.395265927470   120.18549172     0.00000000
 C      3   1   2     1.846069150729   120.79447408   223.22125412
 C     22   3   1     1.400618132661   116.94106200    33.24465868
 C     23  22   3     1.394392750734   120.93790485   179.91467814
 C     24  23  22     1.396807474038   120.00943633     0.17882267
 C     25  24  23     1.395123824433   119.54990633   359.19241419
 C     16   5   2     1.393896281646   120.77133485   183.23864400
 C     26  25  24     1.396514695077   120.25177223     0.42475016
 C      3   1   2     1.844159036087   116.50602238    96.85860404
 C     29   3   1     1.401858201453   119.64086391   271.75570012
 C     30  29   3     1.395523381704   120.72274994   172.73333839
 C     31  30  29     1.395716936782   120.24614508     0.00000000
 C     32  31  30     1.394900316784   119.44327919     0.55279620
 C     33  32  31     1.394983808936   120.29178122   359.57425596
 C      4   1   2     1.847363886463   113.89753096    45.49671934
 C     35   4   1     1.401997643655   120.02356066    84.37501501
 C     36  35   4     1.395523354871   120.81830204   187.80860644
 C     27  16   5     1.397199177291   119.82157435   359.35587204
 C     37  36  35     1.395949312904   120.19378620   359.90390018
 C     39  37  36     1.394871367085   119.39583120   359.37356731
 C     40  39  37     1.395257456888   120.37581331     0.54804850
 C      4   1   2     1.838289987057   121.59367061   281.79243387
 C     42   4   1     1.401687414893   123.40619986   153.68885208
 C     43  42   4     1.395113590493   120.50555972   178.67574170
 C     44  43  42     1.396934555100   120.12653252   359.24560320
 C     45  44  43     1.395393602525   119.68840638   359.97137722
 C     46  45  44     1.395044853586   120.05431519     0.69013562
 C      4   1   2     1.850113820522   114.59160850   159.64435531
 C     38  27  16     1.396528796782   119.75650077   359.17462789
 C     48   4   1     1.400340328927   123.37682063   148.89966675
 C     50  48   4     1.395674703409   120.49742611   183.53864414
 C     51  50  48     1.396970025819   120.39444108   359.74624256
 C     52  51  50     1.395387486324   119.57046200   359.28489090
 C     53  52  51     1.394988257779   119.78890006     0.79880258
 C     49  38  27     1.396708484031   120.28376259     1.12542046
 C      8   7   6     1.400588540522   120.63723747     0.86735239
 C     56   8   7     1.400177247800   119.04580232   359.30098252
 C      6   2   1     1.395825037810    61.02646193   222.41463193
 H     10   9   2     1.092566743388   119.39645201   358.27488174
 H     11  10   9     1.093965627888   119.64167195   179.98723277
 H     12  11  10     1.094030547047   120.26548712   179.46575096
 H     13  12  11     1.093974583520   120.15996856   180.07596902
 H     14  13  12     1.091732242330   119.17092109   180.50256996
 H     41  40  39     1.089903919290   119.08224476   180.38174299
 H     40  39  37     1.093588000789   120.36495291   180.16365927
 H     39  37  36     1.093810213774   120.29362339   179.68923849
 H     37  36  35     1.094020321612   119.60406759   179.99516186
 H     36  35   4     1.092422397995   120.10665968     7.59892094
 H     50  48   4     1.091232187714   120.27997758     1.47692912
 H     51  50  48     1.094098011862   119.58464456   179.08634396
 H     52  51  50     1.093912913772   120.17134845   179.09122606
 H     53  52  51     1.093746619862   120.66375766   179.14712811
 H     54  53  52     1.089886639075   119.36922029   177.66468058
 H      8   7   6     1.091315263032   119.73394235   180.29734570
 H      7   6   2     1.093789748621   120.43890311   178.60511406
 H      6   2   1     1.094069319601   178.56995894    81.10406841
 H     58   6   2     1.093988154608   120.09515725   180.98422629
 H     57  56   8     1.092683055672   120.06304824   179.90395099
 H     55  49  38     1.092241167688   119.59883814   178.66757794
 H     16   5   2     1.090718412483   118.89132486     1.75964301
 H     27  16   5     1.093744898046   119.62640312   178.15190138
 H     38  27  16     1.094016405507   120.15247350   179.31795791
 H     49  38  27     1.094146612612   120.04288381   180.51636782
 H     21  20  19     1.091878482874   119.02653253   179.86160349
 H     20  19  18     1.093967885492   120.16157404   179.83818127
 H     19  18  17     1.094160464781   120.31550517   179.55839210
 H     18  17  15     1.094117909025   119.35383951   179.77411207
 H     17  15   3     1.090892611254   119.10451592   356.82008371
 H     23  22   3     1.093354203203   119.12467647   359.45992003
 H     28  26  25     1.092048510600   119.19966549   180.44324657
 H     26  25  24     1.093953991094   120.10629587   180.51922861
 H     24  23  22     1.093936276836   119.81856210   180.01115924
 H     25  24  23     1.093970699348   120.22390091   179.53712159
 H     34  33  32     1.089317293323   118.97764627   179.39648987
 H     30  29   3     1.092425719599   119.92389801   353.30121066
 H     31  30  29     1.094107632580   119.57836355   179.98638224
 H     32  31  30     1.093872702410   120.28101772   180.35829703
 H     33  32  31     1.093733404510   120.38239462   179.85967180
 H     43  42   4     1.092687505137   120.14492718   358.51745008
 H     47  46  45     1.091154215969   120.21212470   178.40082320
 H     46  45  44     1.093582075592   120.43633534   180.51307120
 H     45  44  43     1.094154975445   120.07556867   180.11976989
 H     44  43  42     1.093949751743   119.73266772   179.42704122
 H      1   2   5     1.737093455664    98.10216207   110.45884605
 H    104   1   2     0.892344336712    73.25598679    82.40017838
 H      1   2   5     1.601835264179    79.53898711   210.89071057
 H      1   2   5     1.622364052689    81.30354780   299.21821518

---------------------------
INTERNAL COORDINATES (A.U.)
---------------------------
 Ru     0   0   0     0.000000000000     0.00000000     0.00000000
 P      1   0   0     4.327588173702     0.00000000     0.00000000
 P      1   2   0     4.352081380272   151.57648864     0.00000000
 P      1   2   3     4.466396539184   101.11141978   137.70987447
 C      2   1   3     3.474782533223   118.02800388   253.43124828
 C      2   1   3     8.774722052782   118.98283681   132.72082420
 C      6   2   1     2.638917543800    58.69937446    41.20535308
 C      7   6   2     2.634674227756   120.02584150   358.44416268
 C      2   1   3     3.491631237675   113.59232968    10.85454467
 C      9   2   1     2.650126585893   118.91422050    52.89071984
 C     10   9   2     2.632252625336   120.86554960   179.03286154
 C     11  10   9     2.641658928327   120.12800679     0.51043030
 C     12  11  10     2.633242388221   119.48183833   359.43229670
 C     13  12  11     2.642753490499   120.28782973     0.00000000
 C      3   1   2     3.500594330727   113.31735611   342.23982620
 C      5   2   1     2.645555392826   117.33279773    38.45152822
 C     15   3   1     2.646074852372   120.16995462    22.12701287
 C     17  15   3     2.637973280032   120.70508090   177.19884549
 C     18  17  15     2.636292947377   120.20347230     0.20830342
 C     19  18  17     2.638327595962   119.53098591   359.69487421
 C     20  19  18     2.636670486909   120.18549172     0.00000000
 C      3   1   2     3.488565119159   120.79447408   223.22125412
 C     22   3   1     2.646784688933   116.94106200    33.24465868
 C     23  22   3     2.635020422013   120.93790485   179.91467814
 C     24  23  22     2.639583587745   120.00943633     0.17882267
 C     25  24  23     2.636401951087   119.54990633   359.19241419
 C     16   5   2     2.634082231401   120.77133485   183.23864400
 C     26  25  24     2.639030315692   120.25177223     0.42475016
 C      3   1   2     3.484955525601   116.50602238    96.85860404
 C     29   3   1     2.649128079338   119.64086391   271.75570012
 C     30  29   3     2.637157004903   120.72274994   172.73333839
 C     31  30  29     2.637522770994   120.24614508     0.00000000
 C     32  31  30     2.635979582842   119.44327919     0.55279620
 C     33  32  31     2.636137360144   120.29178122   359.57425596
 C      4   1   2     3.491011815112   113.89753096    45.49671934
 C     35   4   1     2.649391586911   120.02356066    84.37501501
 C     36  35   4     2.637156954197   120.81830204   187.80860644
 C     27  16   5     2.640323799620   119.82157435   359.35587204
 C     37  36  35     2.637961898223   120.19378620   359.90390018
 C     39  37  36     2.635924875839   119.39583120   359.37356731
 C     40  39  37     2.636654479830   120.37581331     0.54804850
 C      4   1   2     3.473864630267   121.59367061   281.79243387
 C     42   4   1     2.648805339512   123.40619986   153.68885208
 C     43  42   4     2.636382611743   120.50555972   178.67574170
 C     44  43  42     2.639823736149   120.12653252   359.24560320
 C     45  44  43     2.636911757797   119.68840638   359.97137722
 C     46  45  44     2.636252717814   120.05431519     0.69013562
 C      4   1   2     3.496208437370   114.59160850   159.64435531
 C     38  27  16     2.639056964053   119.75650077   359.17462789
 C     48   4   1     2.646259715957   123.37682063   148.89966675
 C     50  48   4     2.637442961484   120.49742611   183.53864414
 C     51  50  48     2.639890766095   120.39444108   359.74624256
 C     52  51  50     2.636900199853   119.57046200   359.28489090
 C     53  52  51     2.636145767238   119.78890006     0.79880258
 C     49  38  27     2.639396523743   120.28376259     1.12542046
 C      8   7   6     2.646728767896   120.63723747     0.86735239
 C     56   8   7     2.645951537290   119.04580232   359.30098252
 C      6   2   1     2.637727052332    61.02646193   222.41463193
 H     10   9   2     2.064651928033   119.39645201   358.27488174
 H     11  10   9     2.067295436631   119.64167195   179.98723277
 H     12  11  10     2.067418116063   120.26548712   179.46575096
 H     13  12  11     2.067312360324   120.15996856   180.07596902
 H     14  13  12     2.063074949575   119.17092109   180.50256996
 H     41  40  39     2.059619919745   119.08224476   180.38174299
 H     40  39  37     2.066581824835   120.36495291   180.16365927
 H     39  37  36     2.067001746519   120.29362339   179.68923849
 H     37  36  35     2.067398792792   119.60406759   179.99516186
 H     36  35   4     2.064379154772   120.10665968     7.59892094
 H     50  48   4     2.062129983299   120.27997758     1.47692912
 H     51  50  48     2.067545606088   119.58464456   179.08634396
 H     52  51  50     2.067195821389   120.17134845   179.09122606
 H     53  52  51     2.066881571441   120.66375766   179.14712811
 H     54  53  52     2.059587264872   119.36922029   177.66468058
 H      8   7   6     2.062286972899   119.73394235   180.29734570
 H      7   6   2     2.066963072984   120.43890311   178.60511406
 H      6   2   1     2.067491385572   178.56995894    81.10406841
 H     58   6   2     2.067338005962   120.09515725   180.98422629
 H     57  56   8     2.064871726397   120.06304824   179.90395099
 H     55  49  38     2.064036679125   119.59883814   178.66757794
 H     16   5   2     2.061159088818   118.89132486     1.75964301
 H     27  16   5     2.066878317680   119.62640312   178.15190138
 H     38  27  16     2.067391392426   120.15247350   179.31795791
 H     49  38  27     2.067637448194   120.04288381   180.51636782
 H     21  20  19     2.063351304154   119.02653253   179.86160349
 H     20  19  18     2.067299702886   120.16157404   179.83818127
 H     19  18  17     2.067663625001   120.31550517   179.55839210
 H     18  17  15     2.067583206275   119.35383951   179.77411207
 H     17  15   3     2.061488276789   119.10451592   356.82008371
 H     23  22   3     2.066140011425   119.12467647   359.45992003
 H     28  26  25     2.063672609990   119.19966549   180.44324657
 H     26  25  24     2.067273446277   120.10629587   180.51922861
 H     24  23  22     2.067239971182   119.81856210   180.01115924
 H     25  24  23     2.067305020302   120.22390091   179.53712159
 H     34  33  32     2.058511357325   118.97764627   179.39648987
 H     30  29   3     2.064385431695   119.92389801   353.30121066
 H     31  30  29     2.067563786610   119.57836355   179.98638224
 H     32  31  30     2.067119832926   120.28101772   180.35829703
 H     33  32  31     2.066856598044   120.38239462   179.85967180
 H     43  42   4     2.064880134666   120.14492718   358.51745008
 H     47  46  45     2.061982638056   120.21212470   178.40082320
 H     46  45  44     2.066570627834   120.43633534   180.51307120
 H     45  44  43     2.067653251659   120.07556867   180.11976989
 H     44  43  42     2.067265435065   119.73266772   179.42704122
 H      1   2   5     3.282630900231    98.10216207   110.45884605
 H    104   1   2     1.686286413542    73.25598679    82.40017838
 H      1   2   5     3.027029960957    79.53898711   210.89071057
 H      1   2   5     3.065823749100    81.30354780   299.21821518

---------------------
BASIS SET INFORMATION
---------------------
There are 4 groups of distinct atoms

 Group   1 Type Ru  : 18s14p10d1f contracted to 6s5p5d1f pattern {733311/63311/52111/1}
 Group   2 Type P   : 10s7p1d contracted to 4s3p1d pattern {5311/511/1}
 Group   3 Type C   : 7s4p1d contracted to 3s2p1d pattern {511/31/1}
 Group   4 Type H   : 4s1p contracted to 2s1p pattern {31/1}

Atom   0Ru   basis set group =>   1
Atom   1P    basis set group =>   2
Atom   2P    basis set group =>   2
Atom   3P    basis set group =>   2
Atom   4C    basis set group =>   3
Atom   5C    basis set group =>   3
Atom   6C    basis set group =>   3
Atom   7C    basis set group =>   3
Atom   8C    basis set group =>   3
Atom   9C    basis set group =>   3
Atom  10C    basis set group =>   3
Atom  11C    basis set group =>   3
Atom  12C    basis set group =>   3
Atom  13C    basis set group =>   3
Atom  14C    basis set group =>   3
Atom  15C    basis set group =>   3
Atom  16C    basis set group =>   3
Atom  17C    basis set group =>   3
Atom  18C    basis set group =>   3
Atom  19C    basis set group =>   3
Atom  20C    basis set group =>   3
Atom  21C    basis set group =>   3
Atom  22C    basis set group =>   3
Atom  23C    basis set group =>   3
Atom  24C    basis set group =>   3
Atom  25C    basis set group =>   3
Atom  26C    basis set group =>   3
Atom  27C    basis set group =>   3
Atom  28C    basis set group =>   3
Atom  29C    basis set group =>   3
Atom  30C    basis set group =>   3
Atom  31C    basis set group =>   3
Atom  32C    basis set group =>   3
Atom  33C    basis set group =>   3
Atom  34C    basis set group =>   3
Atom  35C    basis set group =>   3
Atom  36C    basis set group =>   3
Atom  37C    basis set group =>   3
Atom  38C    basis set group =>   3
Atom  39C    basis set group =>   3
Atom  40C    basis set group =>   3
Atom  41C    basis set group =>   3
Atom  42C    basis set group =>   3
Atom  43C    basis set group =>   3
Atom  44C    basis set group =>   3
Atom  45C    basis set group =>   3
Atom  46C    basis set group =>   3
Atom  47C    basis set group =>   3
Atom  48C    basis set group =>   3
Atom  49C    basis set group =>   3
Atom  50C    basis set group =>   3
Atom  51C    basis set group =>   3
Atom  52C    basis set group =>   3
Atom  53C    basis set group =>   3
Atom  54C    basis set group =>   3
Atom  55C    basis set group =>   3
Atom  56C    basis set group =>   3
Atom  57C    basis set group =>   3
Atom  58H    basis set group =>   4
Atom  59H    basis set group =>   4
Atom  60H    basis set group =>   4
Atom  61H    basis set group =>   4
Atom  62H    basis set group =>   4
Atom  63H    basis set group =>   4
Atom  64H    basis set group =>   4
Atom  65H    basis set group =>   4
Atom  66H    basis set group =>   4
Atom  67H    basis set group =>   4
Atom  68H    basis set group =>   4
Atom  69H    basis set group =>   4
Atom  70H    basis set group =>   4
Atom  71H    basis set group =>   4
Atom  72H    basis set group =>   4
Atom  73H    basis set group =>   4
Atom  74H    basis set group =>   4
Atom  75H    basis set group =>   4
Atom  76H    basis set group =>   4
Atom  77H    basis set group =>   4
Atom  78H    basis set group =>   4
Atom  79H    basis set group =>   4
Atom  80H    basis set group =>   4
Atom  81H    basis set group =>   4
Atom  82H    basis set group =>   4
Atom  83H    basis set group =>   4
Atom  84H    basis set group =>   4
Atom  85H    basis set group =>   4
Atom  86H    basis set group =>   4
Atom  87H    basis set group =>   4
Atom  88H    basis set group =>   4
Atom  89H    basis set group =>   4
Atom  90H    basis set group =>   4
Atom  91H    basis set group =>   4
Atom  92H    basis set group =>   4
Atom  93H    basis set group =>   4
Atom  94H    basis set group =>   4
Atom  95H    basis set group =>   4
Atom  96H    basis set group =>   4
Atom  97H    basis set group =>   4
Atom  98H    basis set group =>   4
Atom  99H    basis set group =>   4
Atom 100H    basis set group =>   4
Atom 101H    basis set group =>   4
Atom 102H    basis set group =>   4
Atom 103H    basis set group =>   4
Atom 104H    basis set group =>   4
Atom 105H    basis set group =>   4
Atom 106H    basis set group =>   4
---------------------------------
AUXILIARY/J BASIS SET INFORMATION
---------------------------------
There are 4 groups of distinct atoms

 Group   1 Type Ru  : 11s5p5d3f3g contracted to 8s5p5d2f3g pattern {41111111/11111/11111/21/111}
 Group   2 Type P   : 14s5p5d2f1g contracted to 8s4p3d1f1g pattern {71111111/2111/311/2/1}
 Group   3 Type C   : 12s5p4d2f1g contracted to 6s4p3d1f1g pattern {711111/2111/211/2/1}
 Group   4 Type H   : 5s2p1d contracted to 3s1p1d pattern {311/2/1}

Atom   0Ru   basis set group =>   1
Atom   1P    basis set group =>   2
Atom   2P    basis set group =>   2
Atom   3P    basis set group =>   2
Atom   4C    basis set group =>   3
Atom   5C    basis set group =>   3
Atom   6C    basis set group =>   3
Atom   7C    basis set group =>   3
Atom   8C    basis set group =>   3
Atom   9C    basis set group =>   3
Atom  10C    basis set group =>   3
Atom  11C    basis set group =>   3
Atom  12C    basis set group =>   3
Atom  13C    basis set group =>   3
Atom  14C    basis set group =>   3
Atom  15C    basis set group =>   3
Atom  16C    basis set group =>   3
Atom  17C    basis set group =>   3
Atom  18C    basis set group =>   3
Atom  19C    basis set group =>   3
Atom  20C    basis set group =>   3
Atom  21C    basis set group =>   3
Atom  22C    basis set group =>   3
Atom  23C    basis set group =>   3
Atom  24C    basis set group =>   3
Atom  25C    basis set group =>   3
Atom  26C    basis set group =>   3
Atom  27C    basis set group =>   3
Atom  28C    basis set group =>   3
Atom  29C    basis set group =>   3
Atom  30C    basis set group =>   3
Atom  31C    basis set group =>   3
Atom  32C    basis set group =>   3
Atom  33C    basis set group =>   3
Atom  34C    basis set group =>   3
Atom  35C    basis set group =>   3
Atom  36C    basis set group =>   3
Atom  37C    basis set group =>   3
Atom  38C    basis set group =>   3
Atom  39C    basis set group =>   3
Atom  40C    basis set group =>   3
Atom  41C    basis set group =>   3
Atom  42C    basis set group =>   3
Atom  43C    basis set group =>   3
Atom  44C    basis set group =>   3
Atom  45C    basis set group =>   3
Atom  46C    basis set group =>   3
Atom  47C    basis set group =>   3
Atom  48C    basis set group =>   3
Atom  49C    basis set group =>   3
Atom  50C    basis set group =>   3
Atom  51C    basis set group =>   3
Atom  52C    basis set group =>   3
Atom  53C    basis set group =>   3
Atom  54C    basis set group =>   3
Atom  55C    basis set group =>   3
Atom  56C    basis set group =>   3
Atom  57C    basis set group =>   3
Atom  58H    basis set group =>   4
Atom  59H    basis set group =>   4
Atom  60H    basis set group =>   4
Atom  61H    basis set group =>   4
Atom  62H    basis set group =>   4
Atom  63H    basis set group =>   4
Atom  64H    basis set group =>   4
Atom  65H    basis set group =>   4
Atom  66H    basis set group =>   4
Atom  67H    basis set group =>   4
Atom  68H    basis set group =>   4
Atom  69H    basis set group =>   4
Atom  70H    basis set group =>   4
Atom  71H    basis set group =>   4
Atom  72H    basis set group =>   4
Atom  73H    basis set group =>   4
Atom  74H    basis set group =>   4
Atom  75H    basis set group =>   4
Atom  76H    basis set group =>   4
Atom  77H    basis set group =>   4
Atom  78H    basis set group =>   4
Atom  79H    basis set group =>   4
Atom  80H    basis set group =>   4
Atom  81H    basis set group =>   4
Atom  82H    basis set group =>   4
Atom  83H    basis set group =>   4
Atom  84H    basis set group =>   4
Atom  85H    basis set group =>   4
Atom  86H    basis set group =>   4
Atom  87H    basis set group =>   4
Atom  88H    basis set group =>   4
Atom  89H    basis set group =>   4
Atom  90H    basis set group =>   4
Atom  91H    basis set group =>   4
Atom  92H    basis set group =>   4
Atom  93H    basis set group =>   4
Atom  94H    basis set group =>   4
Atom  95H    basis set group =>   4
Atom  96H    basis set group =>   4
Atom  97H    basis set group =>   4
Atom  98H    basis set group =>   4
Atom  99H    basis set group =>   4
Atom 100H    basis set group =>   4
Atom 101H    basis set group =>   4
Atom 102H    basis set group =>   4
Atom 103H    basis set group =>   4
Atom 104H    basis set group =>   4
Atom 105H    basis set group =>   4
Atom 106H    basis set group =>   4
------------------------------------------------------------------------------
                             ORCA STARTUP CALCULATIONS
                           -- RI-GTO INTEGRALS CHOSEN --
------------------------------------------------------------------------------
------------------------------------------------------------------------------
                   ___                                                        
                  /   \      - P O W E R E D   B Y -                         
                 /     \                                                     
                 |  |  |   _    _      __       _____    __    __             
                 |  |  |  | |  | |    /  \     |  _  \  |  |  /  |          
                  \  \/   | |  | |   /    \    | | | |  |  | /  /          
                 / \  \   | |__| |  /  /\  \   | |_| |  |  |/  /          
                |  |  |   |  __  | /  /__\  \  |    /   |      \           
                |  |  |   | |  | | |   __   |  |    \   |  |\   \          
                \     /   | |  | | |  |  |  |  | |\  \  |  | \   \       
                 \___/    |_|  |_| |__|  |__|  |_| \__\ |__|  \__/        
                                                                              
                      - O R C A' S   B I G   F R I E N D -                    
                                      &                                       
                       - I N T E G R A L  F E E D E R -                       
                                                                              
 v1 FN, 2020, v2 2021, v3 2022-2024                                           
------------------------------------------------------------------------------


----------------------
SHARK INTEGRAL PACKAGE
----------------------

Number of atoms                             ...    107
Number of basis functions                   ...   1108
Number of shells                            ...    512
Maximum angular momentum                    ...      3
Integral batch strategy                     ... SHARK/LIBINT Hybrid
RI-J (if used) integral strategy            ... SPLIT-RIJ (Revised 2003 algorithm where possible)
Printlevel                                  ...      1
Contraction scheme used                     ... SEGMENTED contraction
Prescreening option                         ... SCHWARTZ
   Thresh                                   ... 1.000e-12
   Tcut                                     ... 1.000e-14
   Tpresel                                  ... 1.000e-14 
Coulomb Range Separation                    ... NOT USED
Exchange Range Separation                   ... NOT USED
Multipole approximations                    ... NOT USED
Finite Nucleus Model                        ... NOT USED
CABS basis                                  ... NOT available
Auxiliary Coulomb fitting basis             ... AVAILABLE
   # of basis functions in Aux-J            ...   3427
   # of shells in Aux-J                     ...   1129
   Maximum angular momentum in Aux-J        ...      4
Auxiliary J/K fitting basis                 ... NOT available
Auxiliary Correlation fitting basis         ... NOT available
Auxiliary 'external' fitting basis          ... NOT available

Checking pre-screening integrals            ... done (  0.0 sec) Dimension = 512
   => SHARK Basis and OBASIS are compatible. Storing Pre-screening
Shell pair information
Shell pair cut-off parameter TPreSel        ...   1.0e-14
Total number of shell pairs                 ...    131328
Shell pairs after pre-screening             ...     82909
Total number of primitive shell pairs       ...    491525
Primitive shell pairs kept                  ...    178830
          la=0 lb=0:  25662 shell pairs
          la=1 lb=0:  31025 shell pairs
          la=1 lb=1:   9540 shell pairs
          la=2 lb=0:   9700 shell pairs
          la=2 lb=1:   5793 shell pairs
          la=2 lb=2:    820 shell pairs
          la=3 lb=0:    208 shell pairs
          la=3 lb=1:    122 shell pairs
          la=3 lb=2:     38 shell pairs
          la=3 lb=3:      1 shell pairs

Checking whether 4 symmetric matrices of dimension 1108 fit in memory
:Max Core in MB      =   4096.00
 MB in use           =    102.16
 MB left             =   3993.84
 MB needed           =     18.75
 Data fit in memory  = YES
Calculating RI/J V-Matrix + Cholesky decomp.... done (  1.3 sec)
Calculating Nuclear repulsion               ... done (  0.0 sec) ENN=  11297.173236189274 Eh

Diagonalization of the overlap matrix:
Smallest eigenvalue                        ... 2.202e-04
Time for diagonalization                   ...    0.407 sec
Threshold for overlap eigenvalues          ... 1.000e-07
Number of eigenvalues below threshold      ... 0
Time for construction of square roots      ...    0.282 sec
Total time needed                          ...    0.694 sec

-------------------
DFT GRID GENERATION
-------------------

General Integration Accuracy     IntAcc      ... 4.959
Radial Grid Type                 RadialGrid  ... OptM3 with GC (2021)
Angular Grid (max. ang.)         AngularGrid ... 6 (Lebedev-590)
Angular grid pruning method      GridPruning ... 4 (adaptive)
Weight generation scheme         WeightScheme... mBecke (2022)
Basis function cutoff            BFCut       ... 1.0000e-12
Integration weight cutoff        WCut        ... 1.0000e-14
Partially contracted basis set               ... off
Rotationally invariant grid construction     ... off
Angular grids for H and He will be reduced by one unit
Core-polarized basis detected: some atoms will have their core
                               angular grid increased.
Steep s-basis detected: some atoms will have their radial
                        grid points doubled.

Total number of grid points                  ...  1251940
Total number of batches                      ...    19611
Average number of points per batch           ...       63
Average number of grid points per atom       ...    11700
Grids setup in  52.6 sec
Initializing property integral containers    ... done (  0.0 sec)

SHARK setup successfully completed in  57.2 seconds

Maximum memory used throughout the entire STARTUP-calculation: 619.4 MB
-------------------------------------------------------------------------------
                                 ORCA GUESS
                   Start orbitals & Density for SCF / CASSCF
-------------------------------------------------------------------------------

------------
SCF SETTINGS
------------
Hamiltonian:
 Density Functional     Method          .... DFT(GTOs)
 Exchange Functional    Exchange        .... B88
   X-Alpha parameter    XAlpha          ....  0.666667
   Becke's b parameter  XBeta           ....  0.004200
 Correlation Functional Correlation     .... P86
 LDA part of GGA corr.  LDAOpt          .... PW91-LDA
 Gradients option       PostSCFGGA      .... off
   NL short-range parameter             ....  4.400000
 RI-approximation to the Coulomb term is turned on
   Number of AuxJ basis functions       .... 3427


General Settings:
 Integral files         IntName         .... 1b_x2csvp
 Hartree-Fock type      HFTyp           .... RHF
 Total Charge           Charge          ....    0
 Multiplicity           Mult            ....    1
 Number of Electrons    NEL             ....  462
 Basis Dimension        Dim             .... 1108
 Nuclear Repulsion      ENuc            ....  11297.1732361893 Eh

Convergence Acceleration:
 AO-DIIS                CNVDIIS         .... on
   Start iteration      DIISMaxIt       ....    12
   Startup error        DIISStart       ....  0.200000
   # of expansion vecs  DIISMaxEq       ....     5
   Bias factor          DIISBfac        ....   1.050
   Max. coefficient     DIISMaxC        ....  10.000
 MO-DIIS                CNVKDIIS        .... off
 Trust-Rad. Augm. Hess. CNVTRAH         .... auto
   Auto Start mean grad. ratio tolernc. ....  1.125000
   Auto Start start iteration           ....    50
   Auto Start num. interpolation iter.  ....    10
   Max. Number of Micro iterations      ....    24
   Max. Number of Macro iterations      .... Maxiter - #DIIS iter
   Number of Davidson start vectors     ....     2
   Converg. threshold    (grad. norm)   ....   2.000e-06
   Grad. Scal. Fac. for Micro threshold ....   0.100
   Minimum threshold for Micro iter.    ....   1.000e-02
   NR start threshold (gradient norm)   ....   1.000e-04
   Initial trust radius                 ....   0.400
   Minimum AH scaling param. (alpha)    ....   1.000
   Maximum AH scaling param. (alpha)    .... 1000.000
   Quad. conv. algorithm                .... NR
   White noise on init. David. guess    .... on
   Maximum white noise                  ....   0.010
   Pseudo random numbers                .... off
   Inactive MOs                         .... canonical
   Orbital update algorithm             .... Taylor
   Preconditioner                       .... Diag
   Full preconditioner red. dimension   ....   250
 SOSCF                 CNVSOSCF           .... on
   Start iteration     SOSCFMaxIt         ....   150
   Startup grad/error  SOSCFStart         ....  0.003300
   Hessian update      SOSCFHessUp        .... L-BFGS
   Autom. constraints  SOSCFAutoConstrain .... off
 Level Shifting         CNVShift        .... on
   Level shift para.    LevelShift      ....    0.2500
   Turn off err/grad.   ShiftErr        ....    0.0010
 Zerner damping         CNVZerner       .... off
 Static damping         CNVDamp         .... on
   Fraction old density DampFac         ....    0.7000
   Max. Damping (<1)    DampMax         ....    0.9800
   Min. Damping (>=0)   DampMin         ....    0.0000
   Turn off err/grad.   DampErr         ....    0.1000

SCF Procedure:
 Maximum # iterations   MaxIter         ....   125
 SCF integral mode      SCFMode         .... Direct
   Integral package                     .... SHARK and LIBINT hybrid scheme
 Reset frequency        DirectResetFreq ....    20
 Integral Threshold     Thresh          ....  1.000e-12 Eh
 Primitive CutOff       TCut            ....  1.000e-14 Eh

Convergence Tolerance:
 Convergence Check Mode ConvCheckMode   .... Total+1el-Energy
 Convergence forced     ConvForced      .... 0
 Energy Change          TolE            ....  1.000e-09 Eh
 1-El. energy change                    ....  1.000e-06 Eh
 Orbital Gradient       TolG            ....  2.000e-06
 Orbital Rotation angle TolX            ....  2.000e-06
 DIIS Error             TolErr          ....  1.000e-08

------------------------------
INITIAL GUESS: MODEL POTENTIAL
------------------------------
Loading Hartree-Fock densities                     ... done
Calculating cut-offs                               ... done
Initializing the effective Hamiltonian             ... done
Setting up the integral package (SHARK)            ... done
Starting the Coulomb interaction                   ... done (  17.2 sec)
Making the grid                                    ... done (   5.6 sec)
Mapping shells                                     ... done
Starting the XC term evaluation                    ... done (   5.5 sec)
  promolecular density results
     # of electrons  =    461.983326737
     EX              =   -489.510896718
     EC              =    -18.207348168
     EX+EC           =   -507.718244886
Transforming the Hamiltonian                       ... done (   0.2 sec)
Diagonalizing the Hamiltonian                      ... done (   0.4 sec)
Back transforming the eigenvectors                 ... done (   0.1 sec)
Now organizing SCF variables                       ... done
                      ------------------
                      INITIAL GUESS DONE (  29.2 sec)
                      ------------------
             **** ENERGY FILE WAS UPDATED (1b_x2csvp.en.tmp) ****
Finished Guess after  29.8 sec
Maximum memory used throughout the entire GUESS-calculation: 184.9 MB

-------------------------------------------------------------------------------------------
                                      ORCA LEAN-SCF
                              memory conserving SCF solver
-------------------------------------------------------------------------------------------

----------------------------------------D-I-I-S--------------------------------------------
Iteration    Energy (Eh)           Delta-E    RMSDP     MaxDP     DIISErr   Damp  Time(sec)
-------------------------------------------------------------------------------------------
               ***  Starting incremental Fock matrix formation  ***
    1    -7645.0730749074919004     0.00e+00  1.61e-03  3.25e-01  2.10e+00  0.700  90.8
Warning: op=0 Small HOMO/LUMO gap (   0.095) - skipping pre-diagonalization
         Will do a full diagonalization
    2    -7645.6540929913553555    -5.81e-01  1.06e-03  1.58e-01  1.47e+00  0.700  78.2
    3    -7645.9195881612231460    -2.65e-01  6.41e-04  1.10e-01  1.03e+00  0.700  77.3
    4    -7646.0799335047795466    -1.60e-01  4.21e-04  8.76e-02  7.24e-01  0.700  73.8
    5    -7646.1936603697449755    -1.14e-01  2.91e-04  6.69e-02  5.08e-01  0.700  80.8
    6    -7646.2739482036977279    -8.03e-02  1.95e-04  4.65e-02  3.56e-01  0.700  71.0
    7    -7646.3300148701291619    -5.61e-02  1.29e-04  3.14e-02  2.49e-01  0.700  70.7
                               ***Turning on AO-DIIS***
    8    -7646.3691959049265279    -3.92e-02  8.43e-05  2.13e-02  1.74e-01  0.700  76.8
    9    -7646.3965926742876036    -2.74e-02  6.26e-05  1.66e-02  1.22e-01  0.700  69.0
   10    -7646.4157790962035506    -1.92e-02  4.43e-05  1.16e-02  8.55e-02  0.700  63.5
   11    -7646.4292158124717389    -1.34e-02  1.01e-04  2.54e-02  5.98e-02  0.000  65.7
                              *** Initializing SOSCF ***
---------------------------------------S-O-S-C-F--------------------------------------
Iteration    Energy (Eh)           Delta-E    RMSDP     MaxDP     MaxGrad    Time(sec)
--------------------------------------------------------------------------------------
   12    -7646.4605542521476309    -3.13e-02  1.15e-05  1.21e-03  3.46e-04    66.8
               *** Restarting incremental Fock matrix formation ***
   13    -7646.4605541045839345     1.48e-07  2.14e-05  3.29e-03  2.06e-04    98.3
   14    -7646.4604971877724893     5.69e-05  1.64e-05  3.01e-03  1.13e-03   115.7
   15    -7646.4605547801347711    -5.76e-05  1.67e-05  1.45e-03  1.73e-04   102.3
   16    -7646.4605304061096831     2.44e-05  1.25e-05  7.63e-04  4.34e-04    90.4
   17    -7646.4605574402758066    -2.70e-05  1.13e-05  1.19e-03  8.44e-05    79.0
   18    -7646.4605513809783588     6.06e-06  8.04e-06  8.63e-04  1.44e-04    58.1
   19    -7646.4605585587178211    -7.18e-06  2.55e-06  1.87e-04  1.59e-05    56.0
   20    -7646.4605581315390737     4.27e-07  1.88e-06  1.37e-04  4.16e-05    55.6
   21    -7646.4605586351372040    -5.04e-07  7.42e-07  4.90e-05  5.86e-06    69.3
   22    -7646.4605585942790640     4.09e-08  5.43e-07  3.52e-05  1.41e-05   103.8
   23    -7646.4605586398229207    -4.55e-08  2.87e-07  1.81e-05  2.78e-06    94.8
   24    -7646.4605586371089885     2.71e-09  1.96e-07  1.31e-05  6.09e-06    78.6
   25    -7646.4605586440211482    -6.91e-09  7.03e-08  5.79e-06  3.64e-07    57.1
                  *** Gradient check signals convergence ***

               *****************************************************
               *                     SUCCESS                       *
               *           SCF CONVERGED AFTER  25 CYCLES          *
               *****************************************************

             **** ENERGY FILE WAS UPDATED (1b_x2csvp.en.tmp) ****

----------------
TOTAL SCF ENERGY
----------------

Total Energy       :      -7646.46055864072150 Eh         -208070.76991 eV

Components:
Nuclear Repulsion  :      11297.17323618927367 Eh          307411.71227 eV
Electronic Energy  :     -18943.63379482999517 Eh         -515482.48218 eV
One Electron Energy:     -32860.03970444973675 Eh         -894167.13894 eV
Two Electron Energy:      13916.40590961974158 Eh          378684.65676 eV

Virial components:
Potential Energy   :     -15756.44608853716272 Eh         -428754.69554 eV
Kinetic Energy     :       8109.98552989644031 Eh          220683.92562 eV
Virial Ratio       :          1.94284515434128

DFT components:
N(Alpha)           :      231.000007578807 electrons
N(Beta)            :      231.000007578807 electrons
N(Total)           :      462.000015157614 electrons
E(X)               :     -497.939503016749 Eh       
E(C)               :      -18.198772895967 Eh       
E(XC)              :     -516.138275912716 Eh       

---------------
SCF CONVERGENCE
---------------

  Last Energy change         ...    6.9122e-09  Tolerance :   1.0000e-09
  Last MAX-Density change    ...    5.7865e-06  Tolerance :   1.0000e-08
  Last RMS-Density change    ...    7.0304e-08  Tolerance :   1.0000e-09
  Last DIIS Error            ...    3.4605e-04  Tolerance :   1.0000e-08
  Last Orbital Gradient      ...    3.6356e-07  Tolerance :   2.0000e-06
  Last Orbital Rotation      ...    1.8361e-06  Tolerance :   2.0000e-06


----------------
ORBITAL ENERGIES
----------------

  NO   OCC          E(Eh)            E(eV) 
   0   2.0000    -831.261892    -22619.7861 
   1   2.0000    -122.320710     -3328.5158 
   2   2.0000    -122.320147     -3328.5004 
   3   2.0000    -122.319253     -3328.4761 
   4   2.0000    -121.150007     -3296.6593 
   5   2.0000     -76.255798     -2075.0258 
   6   2.0000     -76.254016     -2074.9773 
   7   2.0000     -76.253157     -2074.9539 
   8   2.0000     -19.392260      -527.6902 
   9   2.0000     -16.780807      -456.6290 
  10   2.0000     -16.780262      -456.6141 
  11   2.0000     -16.778850      -456.5757 
  12   2.0000      -9.918937      -269.9080 
  13   2.0000      -9.918165      -269.8870 
  14   2.0000      -9.917839      -269.8781 
  15   2.0000      -9.917808      -269.8773 
  16   2.0000      -9.917524      -269.8696 
  17   2.0000      -9.917276      -269.8628 
  18   2.0000      -9.917051      -269.8567 
  19   2.0000      -9.917014      -269.8557 
  20   2.0000      -9.916765      -269.8489 
  21   2.0000      -9.916564      -269.8434 
  22   2.0000      -9.916408      -269.8392 
  23   2.0000      -9.916391      -269.8387 
  24   2.0000      -9.916088      -269.8305 
  25   2.0000      -9.915958      -269.8269 
  26   2.0000      -9.915787      -269.8223 
  27   2.0000      -9.915118      -269.8041 
  28   2.0000      -9.914651      -269.7914 
  29   2.0000      -9.914555      -269.7888 
  30   2.0000      -9.914492      -269.7870 
  31   2.0000      -9.914457      -269.7861 
  32   2.0000      -9.914338      -269.7829 
  33   2.0000      -9.913810      -269.7685 
  34   2.0000      -9.913724      -269.7662 
  35   2.0000      -9.913600      -269.7628 
  36   2.0000      -9.913566      -269.7619 
  37   2.0000      -9.913419      -269.7578 
  38   2.0000      -9.913376      -269.7567 
  39   2.0000      -9.913133      -269.7501 
  40   2.0000      -9.912949      -269.7450 
  41   2.0000      -9.912539      -269.7339 
  42   2.0000      -9.912444      -269.7313 
  43   2.0000      -9.912408      -269.7303 
  44   2.0000      -9.912308      -269.7276 
  45   2.0000      -9.912186      -269.7243 
  46   2.0000      -9.912119      -269.7225 
  47   2.0000      -9.912091      -269.7217 
  48   2.0000      -9.911935      -269.7175 
  49   2.0000      -9.911769      -269.7129 
  50   2.0000      -9.911221      -269.6980 
  51   2.0000      -9.911013      -269.6924 
  52   2.0000      -9.910979      -269.6915 
  53   2.0000      -9.910931      -269.6901 
  54   2.0000      -9.910615      -269.6816 
  55   2.0000      -9.910535      -269.6794 
  56   2.0000      -9.910157      -269.6691 
  57   2.0000      -9.910021      -269.6654 
  58   2.0000      -9.909930      -269.6629 
  59   2.0000      -9.909728      -269.6574 
  60   2.0000      -9.909687      -269.6563 
  61   2.0000      -9.909069      -269.6395 
  62   2.0000      -9.908890      -269.6346 
  63   2.0000      -9.908550      -269.6253 
  64   2.0000      -9.906978      -269.5826 
  65   2.0000      -9.902721      -269.4667 
  66   2.0000      -9.456896      -257.3352 
  67   2.0000      -9.456620      -257.3277 
  68   2.0000      -9.455970      -257.3100 
  69   2.0000      -9.455613      -257.3003 
  70   2.0000      -9.455316      -257.2922 
  71   2.0000      -6.315952      -171.8658 
  72   2.0000      -6.314586      -171.8286 
  73   2.0000      -6.314371      -171.8228 
  74   2.0000      -4.545921      -123.7008 
  75   2.0000      -4.545481      -123.6888 
  76   2.0000      -4.544419      -123.6599 
  77   2.0000      -4.544179      -123.6534 
  78   2.0000      -4.544072      -123.6505 
  79   2.0000      -4.544021      -123.6491 
  80   2.0000      -4.542389      -123.6047 
  81   2.0000      -4.540987      -123.5665 
  82   2.0000      -4.540900      -123.5642 
  83   2.0000      -2.586882       -70.3926 
  84   2.0000      -1.734505       -47.1983 
  85   2.0000      -1.732209       -47.1358 
  86   2.0000      -1.731129       -47.1064 
  87   2.0000      -0.781499       -21.2657 
  88   2.0000      -0.778990       -21.1974 
  89   2.0000      -0.777571       -21.1588 
  90   2.0000      -0.772140       -21.0110 
  91   2.0000      -0.771119       -20.9832 
  92   2.0000      -0.770077       -20.9549 
  93   2.0000      -0.769547       -20.9404 
  94   2.0000      -0.768016       -20.8988 
  95   2.0000      -0.765503       -20.8304 
  96   2.0000      -0.699366       -19.0307 
[...]
    XC Preparation          ....       0.000 sec  (  0.0% of XC)
    Basis function eval.    ....     349.906 sec  ( 32.8% of XC)
    Density eval.           ....     435.130 sec  ( 40.8% of XC)
    XC-Functional eval.     ....      20.979 sec  (  2.0% of XC)
    XC-Potential eval.      ....     241.985 sec  ( 22.7% of XC)
Diagonalization             ....       0.000 sec  (  0.0%)
Density matrix formation    ....       1.823 sec  (  0.1%)
Total Energy calculation    ....       0.402 sec  (  0.0%)
Population analysis         ....       0.697 sec  (  0.0%)
Orbital Transformation      ....       2.082 sec  (  0.1%)
Orbital Orthonormalization  ....       0.000 sec  (  0.0%)
DIIS solution               ....      15.381 sec  (  0.8%)
SOSCF solution              ....      13.216 sec  (  0.7%)
Finished LeanSCF after 1991.6 sec

Maximum memory used throughout the entire LEANSCF-calculation: 356.7 MB
------------------------------------------------------------------------------
                           ORCA ORBITAL LOCALIZATION
------------------------------------------------------------------------------

Input orbitals are from                  ... 1b_x2csvp.gbw
Output orbitals are to                   ... 1b_x2csvp.loc
Max. number of iterations                ... 128
Localizations seeded randomly            ... on
Convergence tolerance                    ... 1.000e-06
Threshold for strong local MOs           ... 9.500e-01
Threshold for bond MOs                   ... 8.500e-01
Operator                                 ... 0
Orbital range for localization           ... 74 to 230
Localization criterion                   ... NEW-BOYS
Doing the dipole integrals               ... o.k.
Initial value of the localization sum : 10699.338712
ITERATION   0 : L=11624.8651247880 DL=  9.26e+02 (AVERGE_DL)=    0.2749142686 
ITERATION   1 : L=11892.3277747184 DL=  2.67e+02 (AVERGE_DL)=    0.1477863911 
ITERATION   2 : L=11945.0596551589 DL=  5.27e+01 (AVERGE_DL)=    0.0656204950 
ITERATION   3 : L=11948.8882338853 DL=  3.83e+00 (AVERGE_DL)=    0.0176816041 
ITERATION   4 : L=11950.3546012611 DL=  1.47e+00 (AVERGE_DL)=    0.0109426943 
ITERATION   5 : L=11950.8928732940 DL=  5.38e-01 (AVERGE_DL)=    0.0066298512 
ITERATION   6 : L=11951.1327702779 DL=  2.40e-01 (AVERGE_DL)=    0.0044260393 
ITERATION   7 : L=11951.4610927969 DL=  3.28e-01 (AVERGE_DL)=    0.0051778946 
ITERATION   8 : L=11951.8942702187 DL=  4.33e-01 (AVERGE_DL)=    0.0059475182 
ITERATION   9 : L=11952.1551392566 DL=  2.61e-01 (AVERGE_DL)=    0.0046154510 
ITERATION  10 : L=11952.2421952471 DL=  8.71e-02 (AVERGE_DL)=    0.0026662582 
ITERATION  11 : L=11952.2654583053 DL=  2.33e-02 (AVERGE_DL)=    0.0013782763 
ITERATION  12 : L=11952.2713818287 DL=  5.92e-03 (AVERGE_DL)=    0.0006954933 
ITERATION  13 : L=11952.2728885367 DL=  1.51e-03 (AVERGE_DL)=    0.0003507660 
ITERATION  14 : L=11952.2732744382 DL=  3.86e-04 (AVERGE_DL)=    0.0001775175 
ITERATION  15 : L=11952.2733738350 DL=  9.94e-05 (AVERGE_DL)=    0.0000900926 
ITERATION  16 : L=11952.2733995227 DL=  2.57e-05 (AVERGE_DL)=    0.0000457999 
ITERATION  17 : L=11952.2734061932 DL=  6.67e-06 (AVERGE_DL)=    0.0000233391 
ITERATION  18 : L=11952.2734079346 DL=  1.74e-06 (AVERGE_DL)=    0.0000119249 
ITERATION  19 : L=11952.2734083883 DL=  4.54e-07 (AVERGE_DL)=    0.0000060863 
LOCALIZATION SUM CONVERGED


--------------------------------------------------------------------------------
                    LOCALIZED MOLECULAR ORBITAL COMPOSITIONS
--------------------------------------------------------------------------------

The Mulliken populations for each LMO on each atom are computed
The LMO`s will be ordered according to atom index and type
  (A) Strongly localized MO`s have populations of >=0.950 on one atom
  (B) Two center bond orbitals have populations of >=0.850 on two atoms
  (C) Other MO`s are considered to be `delocalized`

FOUND  -  15 strongly local MO`s
       - 141 two center bond MO`s
       -   1 significantly delocalized MO`s

Rather strongly localized orbitals:
MO  88:   3P  -   0.999415
MO  87:   3P  -   0.999939
MO  86:   3P  -   0.999001
MO  85:   2P  -   0.998991
MO  84:   2P  -   0.999753
MO  83:   2P  -   0.999790
MO  82:   1P  -   0.999868
MO  81:   1P  -   0.999828
MO  80:   1P  -   0.998995
MO  79:   0Ru -   0.952902
MO  78:   0Ru -   0.970114
MO  77:   0Ru -   0.978948
MO  76:   0Ru -   0.975713
MO  75:   0Ru -   0.952323
MO  74:   0Ru -   0.975554
Bond-like localized orbitals:
MO 229: 106H  -   0.456944  and   0Ru -   0.422208
MO 228: 105H  -   0.422245  and   0Ru -   0.474263
MO 227: 102H  -   0.518126  and  43C  -   0.514523
MO 226: 101H  -   0.517300  and  44C  -   0.515024
MO 225: 100H  -   0.517342  and  45C  -   0.516335
MO 224:  99H  -   0.489536  and  46C  -   0.540474
MO 223:  98H  -   0.502864  and  42C  -   0.531143
MO 222:  97H  -   0.518305  and  32C  -   0.514881
MO 221:  96H  -   0.518248  and  31C  -   0.513663
MO 220:  95H  -   0.518672  and  30C  -   0.513065
MO 219:  94H  -   0.504552  and  29C  -   0.527687
MO 218:  93H  -   0.511042  and  33C  -   0.524661
MO 217:  92H  -   0.515917  and  24C  -   0.515788
MO 216:  91H  -   0.517264  and  23C  -   0.515361
MO 215:  90H  -   0.517522  and  25C  -   0.514563
MO 214:  89H  -   0.501110  and  27C  -   0.528852
MO 213:  88H  -   0.498380  and  22C  -   0.526833
MO 212:  87H  -   0.479507  and  16C  -   0.548036
MO 211:  86H  -   0.516109  and  17C  -   0.516598
MO 210:  85H  -   0.518255  and  18C  -   0.512752
MO 209:  84H  -   0.519595  and  19C  -   0.511169
MO 208:  83H  -   0.512644  and  20C  -   0.518938
MO 207:  82H  -   0.517931  and  48C  -   0.512724
MO 206:  81H  -   0.517208  and  37C  -   0.515343
MO 205:  80H  -   0.512662  and  26C  -   0.520911
MO 204:  79H  -   0.489142  and  15C  -   0.537886
MO 203:  78H  -   0.504589  and  54C  -   0.528282
MO 202:  77H  -   0.504594  and  56C  -   0.528025
MO 201:  76H  -   0.517964  and  57C  -   0.513251
MO 200:  75H  -   0.517595  and   5C  -   0.513245
MO 199:  74H  -   0.518714  and   6C  -   0.514679
MO 198:  73H  -   0.503360  and   7C  -   0.527125
MO 197:  72H  -   0.500931  and  53C  -   0.524773
MO 196:  71H  -   0.513364  and  52C  -   0.519846
MO 195:  70H  -   0.516967  and  51C  -   0.515747
MO 194:  69H  -   0.518171  and  50C  -   0.511874
MO 193:  68H  -   0.507744  and  49C  -   0.524066
MO 192:  67H  -   0.508539  and  35C  -   0.522479
MO 191:  66H  -   0.518821  and  36C  -   0.512273
MO 190:  65H  -   0.517680  and  38C  -   0.514054
MO 189:  64H  -   0.517346  and  39C  -   0.515988
MO 188:  63H  -   0.508397  and  40C  -   0.525520
MO 187:  62H  -   0.504071  and  13C  -   0.526912
MO 186:  61H  -   0.518458  and  12C  -   0.511782
MO 185:  60H  -   0.517424  and  11C  -   0.514624
MO 184:  59H  -   0.516110  and  10C  -   0.515472
MO 183:  58H  -   0.494077  and   9C  -   0.535230
MO 182:  57C  -   0.518139  and  56C  -   0.493495
MO 181:  57C  -   0.470127  and   5C  -   0.457138
MO 180:  57C  -   0.469426  and   5C  -   0.457165
MO 179:  56C  -   0.448861  and  55C  -   0.468656
MO 178:  56C  -   0.452931  and  55C  -   0.471091
MO 177:  55C  -   0.516166  and   7C  -   0.495978
MO 176:  55C  -   0.548775  and   1P  -   0.478450
MO 175:  54C  -   0.444682  and  48C  -   0.473302
MO 174:  54C  -   0.443949  and  48C  -   0.484105
MO 173:  54C  -   0.502485  and   4C  -   0.505409
MO 172:  53C  -   0.495950  and  52C  -   0.515779
MO 171:  53C  -   0.444686  and  47C  -   0.469979
MO 170:  53C  -   0.448655  and  47C  -   0.477830
MO 169:  52C  -   0.457856  and  51C  -   0.460253
MO 168:  52C  -   0.465791  and  51C  -   0.464172
MO 167:  51C  -   0.509786  and  50C  -   0.505583
MO 166:  50C  -   0.480068  and  49C  -   0.449312
MO 165:  50C  -   0.471186  and  49C  -   0.446519
MO 164:  49C  -   0.506763  and  47C  -   0.501067
MO 163:  48C  -   0.503828  and  37C  -   0.511120
MO 162:  47C  -   0.541314  and   3P  -   0.486761
MO 161:  46C  -   0.489315  and  45C  -   0.522117
MO 160:  46C  -   0.447030  and  41C  -   0.476249
MO 159:  46C  -   0.422552  and  41C  -   0.491538
MO 158:  45C  -   0.461708  and  44C  -   0.465393
MO 157:  45C  -   0.465137  and  44C  -   0.456369
MO 156:  44C  -   0.511741  and  43C  -   0.502328
MO 155:  43C  -   0.475675  and  42C  -   0.448733
MO 154:  43C  -   0.475892  and  42C  -   0.445452
MO 153:  42C  -   0.513338  and  41C  -   0.492742
MO 152:  41C  -   0.548894  and   3P  -   0.465143
MO 151:  40C  -   0.499814  and  39C  -   0.511123
MO 150:  40C  -   0.449843  and  34C  -   0.465108
MO 149:  40C  -   0.440794  and  34C  -   0.481794
MO 148:  39C  -   0.462427  and  38C  -   0.465098
MO 147:  39C  -   0.458651  and  38C  -   0.464692
MO 146:  38C  -   0.508729  and  36C  -   0.506248
MO 145:  37C  -   0.458024  and  26C  -   0.459894
MO 144:  37C  -   0.463167  and  26C  -   0.464167
MO 143:  36C  -   0.472987  and  35C  -   0.452554
MO 142:  36C  -   0.467613  and  35C  -   0.456288
MO 141:  35C  -   0.501526  and  34C  -   0.505647
MO 140:  34C  -   0.542652  and   3P  -   0.483940
MO 139:  33C  -   0.501977  and  32C  -   0.509276
MO 138:  33C  -   0.449299  and  28C  -   0.465414
MO 137:  33C  -   0.440230  and  28C  -   0.481912
MO 136:  32C  -   0.465139  and  31C  -   0.462489
MO 135:  32C  -   0.460291  and  31C  -   0.461723
MO 134:  31C  -   0.510251  and  30C  -   0.503811
MO 133:  30C  -   0.478928  and  29C  -   0.445388
MO 132:  30C  -   0.470460  and  29C  -   0.452231
MO 131:  29C  -   0.497390  and  28C  -   0.509523
MO 130:  28C  -   0.547636  and   2P  -   0.473844
MO 129:  27C  -   0.448299  and  25C  -   0.474027
MO 128:  27C  -   0.446796  and  25C  -   0.472482
MO 127:  27C  -   0.506453  and  21C  -   0.500949
MO 126:  26C  -   0.518792  and  15C  -   0.494067
MO 125:  25C  -   0.500882  and  24C  -   0.513856
MO 124:  24C  -   0.454735  and  23C  -   0.467607
MO 123:  24C  -   0.462435  and  23C  -   0.463885
MO 122:  23C  -   0.519290  and  22C  -   0.492002
MO 121:  22C  -   0.440203  and  21C  -   0.472534
MO 120:  22C  -   0.453113  and  21C  -   0.469891
MO 119:  21C  -   0.557232  and   2P  -   0.468683
MO 118:  20C  -   0.444655  and  19C  -   0.479927
MO 117:  20C  -   0.455573  and  19C  -   0.468404
MO 116:  20C  -   0.510214  and  14C  -   0.496593
MO 115:  19C  -   0.504030  and  18C  -   0.511082
MO 114:  18C  -   0.458484  and  17C  -   0.468099
MO 113:  18C  -   0.462967  and  17C  -   0.463212
MO 112:  17C  -   0.525859  and  16C  -   0.485708
MO 111:  16C  -   0.427406  and  14C  -   0.492317
MO 110:  16C  -   0.443879  and  14C  -   0.476077
MO 109:  15C  -   0.446683  and   4C  -   0.476456
MO 108:  15C  -   0.428547  and   4C  -   0.489412
MO 107:  14C  -   0.532384  and   2P  -   0.487219
MO 106:  13C  -   0.490795  and  12C  -   0.520978
MO 105:  13C  -   0.450428  and   8C  -   0.475555
MO 104:  13C  -   0.452120  and   8C  -   0.466847
MO 103:  12C  -   0.468319  and  11C  -   0.461250
MO 102:  12C  -   0.468465  and  11C  -   0.460603
MO 101:  11C  -   0.512522  and  10C  -   0.502323
MO 100:  10C  -   0.480670  and   9C  -   0.446402
MO  99:  10C  -   0.469629  and   9C  -   0.451606
MO  98:   9C  -   0.500595  and   8C  -   0.510827
MO  97:   8C  -   0.544324  and   1P  -   0.478311
MO  96:   7C  -   0.444948  and   6C  -   0.476836
MO  95:   7C  -   0.445221  and   6C  -   0.474600
MO  94:   6C  -   0.497522  and   5C  -   0.516687
MO  93:   4C  -   0.550986  and   1P  -   0.469976
MO  92:   3P  -   0.817219  and   0Ru -   0.168176
MO  91:   2P  -   0.776936  and   0Ru -   0.220244
MO  90:   1P  -   0.002377  and   0Ru -   0.929588
MO  89:   1P  -   0.783905  and   0Ru -   0.218439
More delocalized orbitals:
MO 230:  0Ru- 0.199 103H - 0.400 104H - 0.366
Localized MO's were stored in: 1b_x2csvp.loc

-------------------------   --------------------
FINAL SINGLE POINT ENERGY     -7646.460558640722
-------------------------   --------------------


------------------------------------------------------------------------------
                              ORCA PROPERTY CALCULATIONS
------------------------------------------------------------------------------

GBWName                                 ... 1b_x2csvp.gbw
Number of atoms                         ...    107
Number of basis functions               ...   1108
Max core memory                         ...   4096 MB

Electric properties:
Dipole moment                           ... YES
Quadrupole moment                       ...  NO
Static polarizability (Dipole/Dipole)   ...  NO
Static polarizability (Dipole/Quad.)    ...  NO
Static polarizability (Quad./Quad.)     ...  NO
Static polarizability (Velocity)        ...  NO
Static hyperpolarizability              ...  NO

Atomic electric properties:
Dipole moment                           ...  NO
Quadrupole moment                       ...  NO
Static polarizability                   ...  NO

Choice of electric origin               ... Center of mass
Position of electric origin             ...     0.003888     0.051810     0.050274

General magnetic properties:
Magnetizability                         ...  NO

EPR properties:
g-Tensor (aka g-matrix)                 ...  NO
Zero-Field splitting spin-orbit         ...  NO
Zero-field splitting spin-spin          ...  NO
Hyperfine couplings                     ...  NO (   0 nuclei)
Quadrupole couplings                    ...  NO (   0 nuclei)
Contact density                         ...  NO (   0 nuclei)

NMR properties:
Chemical shifts                         ...  NO (   0 nuclei)
Spin-rotation constants                 ...  NO (   0 nuclei)
Spin-spin couplings                     ...  NO (   0 nuclei,    0 pairs)

Choice of magnetic origin               ... GIAO
Position of magnetic origin             ...     0.000000     0.000000     0.000000

Properties with geometric perturbations:
SCF Hessian                             ...  NO
IR spectrum                             ...  NO
VCD spectrum                            ...  NO
X-ray spectroscopy properties:
SCF XES/XAS/RIXS spectra                ...  NO

SCF SOC stabilization energy            ...  NO
Diagonal Born-Oppenheimer correction    ...  NO

-------------
DIPOLE MOMENT
-------------

Method             : SCF
Type of density    : Electron Density
Multiplicity       :   1
Irrep              :   0
Energy             : -7646.4605586407215014 Eh
Basis              : AO
                                X                 Y                 Z
Electronic contribution:      0.383453607       8.597392145       6.807113440
Nuclear contribution   :     -0.418601358      -9.240400677      -6.886707465
                        -----------------------------------------
Total Dipole Moment    :     -0.035147751      -0.643008532      -0.079594025
                        -----------------------------------------
Magnitude (a.u.)       :      0.648868665
Magnitude (Debye)      :      1.649293076



--------------------
Rotational spectrum 
--------------------
 
Rotational constants in cm-1:             0.001786             0.001454             0.001229 
Rotational constants in MHz :            53.554784            43.596668            36.850829 

Dipole components along the rotational axes: 
x,y,z [a.u.] :    -0.033042     0.639306    -0.105954 
x,y,z [Debye]:    -0.083986     1.624988    -0.269313 

 

Dipole moment calculation done in   0.0 sec 

Maximum memory used throughout the entire PROP-calculation: 190.7 MB

--------------------------------
SUGGESTED CITATIONS FOR THIS RUN
--------------------------------

Below you find a list of papers that are relevant to this ORCA run
We neither can nor want to force you to cite these papers, but we appreciate if you do
You receive ORCA, which is the product of decades of hard work by many enthusiastic individuals, for free
The only thing we kindly ask in return is that you cite our papers,
We deeply appreciate it, if you show your appreciation for ORCA by not just citing the generic ORCA reference.

Please note that relegating all ORCA citations to the supporting information does *not* help us.
SI sections are not indexed - citations you put there will not count into any citation statistics
But we need these citations in order to attract the funding resources that allow us to do what we are doing

Therefore, if you are a happy ORCA user, please consider citing a few of the papers listed below in the main body of your paper

In addition to the list printed below, the program has created the file 1b_x2csvp.bibtex that contains the list in bibtex format
You can import this file easily into all common literature databanks and citation aid programs

It goes without saying that in many instances, there are alternative algorithms to achieve similar
results as the ones you have gotten from ORCA. It is, of course, also the case that in some instances
ORCA just re-implements algorithms worked out by others. We are fully aware of that and we are also
fully appreciative of our colleagues work. Hence this citation list should not be read as indicating
that the listed papers, which are focused on our own work, are the only ones worth citing. It simply
meant to make it easier for users to cite ORCA specific papers. It is not a substitute for doing your
own literature research and citing the relevant literature in a scientifically appropriate manner.

List of essential papers. We consider these as the minimum necessary citations

  1. Neese, F.
     Software update: the ORCA program system, version 6.0
     WIRES Comput. Molec. Sci. 2025 15(1), e70019
     doi.org/10.1002/wcms.70019

List of papers to cite with high priority. The work reported in these papers was absolutely
necessary for this run to complete.
Our perspective: the developers of density functionals and basis sets usually get cited in chemistry papers
Good! But without the algorithms to do something with them, the functionals or basis sets would not do anything.
Hence, in our opinion, the algorithm design and method developments papers are equally worthy of getting cited

  1. Neese, F.
     An improvement of the resolution of the identity approximation for the formation of the Coulomb matrix
     J. Comp. Chem. 2003 24(14), 1740-1747
     doi.org/10.1002/jcc.10318
  2. Neese, F.
     The SHARK Integral Generation and Digestion System
     J. Comp. Chem. 2022 44(3), 381
     doi.org/10.1002/jcc.26942

List of suggested additional citations. These are papers that are important in the 'surrounding' of 
of this run, or papers that preceded the highly important papers. If you like your results we are grateful for a citation.

  1. Neese, F.
     The ORCA program system
     WIRES Comput. Molec. Sci. 2012 2(1), 73-78
     doi.org/10.1002/wcms.81
  2. Neese, F.
     Software update: the ORCA program system, version 4.0
     WIRES Comput. Molec. Sci. 2018 8(1), 1-6
     doi.org/10.1002/wcms.1327
  3. Neese, F.; Wennmohs, F.; Becker, U.; Riplinger, C.
     The ORCA quantum chemistry program package
     J. Chem. Phys. 2020 152(22), 224108
     doi.org/10.1063/5.0004608
  4. Neese, F.
     Software update: The ORCA program system—Version 5.0
     WIRES Comput. Molec. Sci. 2022 12(1), e1606
     doi.org/10.1002/wcms.1606

List of optional additional citations

  1. Neese, F.
     Approximate second-order SCF convergence for spin unrestricted wavefunctions
     Chem. Phys. Lett. 2000 325(1-3), 93-98
     doi.org/10.1016/s0009-2614(00)00662-x

Timings for individual modules:

Sum of individual times          ...     2080.749 sec (=  34.679 min)
Startup calculation              ...       57.255 sec (=   0.954 min)   2.8 %
SCF iterations                   ...     2021.512 sec (=  33.692 min)  97.2 %
Property calculations            ...        0.524 sec (=   0.009 min)   0.0 %
Orbital localization             ...        1.457 sec (=   0.024 min)   0.1 %
                             ****ORCA TERMINATED NORMALLY****
TOTAL RUN TIME: 0 days 0 hours 34 minutes 41 seconds 68 msec
