
                                 *****************
                                 * O   R   C   A *
                                 *****************

                                            #,                                       
                                            ###                                      
                                            ####                                     
                                            #####                                    
                                            ######                                   
                                           ########,                                 
                                     ,,################,,,,,                         
                               ,,#################################,,                 
                          ,,##########################################,,             
                       ,#########################################, ''#####,          
                    ,#############################################,,   '####,        
                  ,##################################################,,,,####,       
                ,###########''''           ''''###############################       
              ,#####''   ,,,,##########,,,,          '''####'''          '####       
            ,##' ,,,,###########################,,,                        '##       
           ' ,,###''''                  '''############,,,                           
         ,,##''                                '''############,,,,        ,,,,,,###''
      ,#''                                            '''#######################'''  
     '                                                          ''''####''''         
             ,#######,   #######,   ,#######,      ##                                
            ,#'     '#,  ##    ##  ,#'     '#,    #''#        ,####,    ,#,          
            ##       ##  ##   ,#'  ##            #'  '#       #'       ,# #          
            ##       ##  #######   ##           ,######,      #####,      #          
            '#,     ,#'  ##    ##  '#,     ,#' ,#      #,     #,   #      #          
             '#######'   ##     ##  '#######'  #'      '#     '####' #    #          



                #########################################################
                #                        -***-                          #
                #          Department of theory and spectroscopy        #
                #                                                       #
                #                      Frank Neese                      #
                #                                                       #
                #     Directorship, Architecture, Infrastructure        #
                #                    SHARK, DRIVERS                     #
                #        Core code/Algorithms in most modules           #
                #                                                       #
                #        Max Planck Institute fuer Kohlenforschung      #
                #                Kaiser Wilhelm Platz 1                 #
                #                 D-45470 Muelheim/Ruhr                 #
                #                      Germany                          #
                #                                                       #
                #                  All rights reserved                  #
                #                        -***-                          #
                #########################################################


                         Program Version 6.1.1  -  RELEASE   -
                                (GIT: $487d211c$)
                          ($2025-11-21 10:33:24 +0100$)


 With contributions from (in alphabetic order):
[Max-Planck-Institut fuer Kohlenforschung]                               
  Daniel Aravena         : Magnetic Suceptibility                        
  Michael Atanasov       : Ab Initio Ligand Field Theory (pilot matlab implementation)
  Alexander A. Auer      : GIAO ZORA, VPT2 properties, NMR spectrum      
  Ute Becker             : All parallelization in ORCA, NUMFREQ, NUMCALC 
  Giovanni Bistoni       : ED, misc. LED, open-shell LED, HFLD           
  Dmytro Bykov           : pre 5.0 version of the SCF Hessian            
  Marcos Casanova-Páez   : Triplet and SCS-CIS(D). UHF-(DLPNO)-IP/EA/STEOM-CCSD. UHF-CVS-IP/STEOM-CCSD   
  Vijay G. Chilkuri      : MRCI spin determinant printing, contributions to CSF-ICE 
  Pauline Colinet        : FMM embedding                                 
  Dipayan Datta          : RHF DLPNO-CCSD density                        
  Achintya Kumar Dutta   : EOM-CC, STEOM-CC                              
  Nicolas Foglia         : Exact transition moments, OPA infrastructure, MCD improvements    
  Dmitry Ganyushin       : Spin-Orbit,Spin-Spin,Magnetic field MRCI      
  Miquel Garcia-Rates    : C-PCM and meta-GGA Hessian, CCSD/C-PCM, Gaussian charge scheme 
  Tiago L. C. Gouveia    : GS-ROHF, GS-ROCIS                             
  Yang Guo               : DLPNO-NEVPT2, F12-NEVPT2, CIM, IAO-localization        
  Andreas Hansen         : Spin unrestricted coupled pair/coupled cluster methods 
  Ingolf Harden          : AUTO-CI MPn and infrastructure                
  Benjamin Helmich-Paris : MC-RPA, TRAH-(SCF,CASSCF), AVAS, COSX integrals, SCF dyn. polar., MC-PDFT, srDFT 
  Lee Huntington         : MR-EOM, pCC                                   
  Robert Izsak           : Overlap fitted RIJCOSX, COSX-SCS-MP3, EOM     
  Riya Kayal             : Wick's Theorem for AUTO-CI, AUTO-CI UHF-CCSDT 
  Emily Kempfer          : AUTO-CI RHF CISDT and CCSDT, approximate NEVPT4
  Christian Kollmar      : KDIIS, OOCD, Brueckner-CCSD(T), CCSD density, CASPT2, CASPT2-K, improved NEVPT2 
  Axel Koslowski         : Symmetry handling                             
  Simone Kossmann        : meta-GGA functionals, TD-DFT gradient, OOMP2, (MP2 Hessian; deprecated post 5.0) 
  Lucas Lang             : DCDCAS, Hyperfine gauge corrections, ICE-SOC+SSC
  Marvin Lechner         : AUTO-CI (C++ implementation), FIC-MRCC        
  Spencer Leger          : CASSCF response                               
  Dagmar Lenk            : GEPOL surface, SMD, ORCA-2-JSON               
  Dimitrios Liakos       : Extrapolation schemes; Compound Job, Property file
  Dimitrios Manganas     : Further ROCIS development; embedding schemes. LFT, Crystal Embedding 
  Dimitrios Pantazis     : SARC Basis sets                               
  Anastasios Papadopoulos: AUTO-CI, single reference methods and gradients 
  Taras Petrenko         : pre 6.0 DFT Hessian and TD-DFT gradient,  ECA, NRVS 
  Petra Pikulova         : Analytic Raman intensities                    
  Peter Pinski           : DLPNO-MP2, DLPNO-MP2 Gradient                 
  Shashank Vittal Rao    : ES-AILFT, MagRelax                            
  Christoph Reimann      : Effective Core Potentials                     
  Marius Retegan         : Local ZFS, SOC                                
  Christoph Riplinger    : Optimizer, TS searches, QM/MM, DLPNO-CCSD(T), (RO)-DLPNO pert. Triples 
  Michael Roemelt        : Original ROCIS implementation, recursive CI coupling coefficients
  Masaaki Saitow         : Open-shell DLPNO-CCSD energy and density      
  Barbara Sandhoefer     : DKH picture change effects                    
  Yorick L. A. Schmerwitz: GMF and freeze-and-release deltaSCF, NEB S-IDPP initial path                    
  Kantharuban Sivalingam : CASSCF convergence/infrastructure, NEVPT2, NEVPT3, NEVPT4(SD), FIC-MRCI and CEPA variants
  Bernardo de Souza      : ESD, SOC TD-DFT                               
  Georgi L. Stoychev     : AutoAux, RI-MP2 NMR, DLPNO-MP2 response, X2C  
  Van Anh Tran           : RI-MP2 g-tensors                              
  Willem Van den Heuvel  : Paramagnetic NMR                              
  Zikuan Wang            : NOTCH, Electric field optimization            
  Frank Wennmohs         : Technical directorship and infrastructure     
  Hang Xu                : AUTO-CI-Response properties                   
                                                                         
[FACCTs GmbH]                                                            
  Markus Bursch, Nicolas Foglia, Miquel Garcia-Rates, Ingolf Harden, Hagen Neugebauer, Anastasios Papadopoulos, 
  Christoph Riplinger, Bernardo de Souza, Georgi L. Stoychev                                                    
                                                                 
  APM, various basis sets, CI-OPT, improved COSX, DLPNO-Multilevel,           
  DOCKER, DRACO, updates on ESD, Fragmentator, GOAT, IRC, LR-CPCM, L-BFGS, MBIS, meta-GGA TD-DFT gradient, ML-optimized integration grids, 
  MM, NACMEs, nearIR, NEB, NEB-TS, NL-DFT gradient (VV10), 2- and 3-layer-ONIOM, interface openCOSMO-RS, QMMM,   
  Crystal-QMMM, RESP, rigid body optimization, SF, symmetry and pop. for TD-DFT, various functionals, SOLVATOR                                   
                                                                         
[Other institutions]                                                     
  V. Asgeirsson          : NEB                                           
  Christoph Bannwarth    : sTDA-DFT, sTD-DFT, PBEh-3c, B97-3c, D3        
  Giovanni Bistoni       : ETS/NOCV, ADLD/ADEX, COVALED                  
  Martin Brehm           : Molecular dynamics                            
  Ronald Cardenas        : ETS/NOCV                                      
  Martina Colucci        : COVALED                                       
  Sebastian Ehlert       : rSCAN, r2SCAN, r2SCAN-3c, D4, dhf basis sets  
  Marvin Friede          : D4 for Fr, Ra, Ac-Lr                          
  Lars Goerigk           : TD-DFT with DH, B97 family of functionals     
  Stefan Grimme          : VdW corrections, initial TS optimization, DFT functionals, gCP, sTDA/sTD-DF 
  Waldemar Hujo          : DFT-NL                                        
  H. Jonsson             : NEB                                           
  Holger Kruse           : gCP                                           
  Marcel Mueller         : wB97X-3c, vDZP basis set                      
  Hagen Neugebauer       : wr2SCAN, Native XTB                           
  Gianluca Regni         : ADLD/ADEX                                     
  Tobias Risthaus        : pre 6.0 range-separated hybrid DFT and stability analysis
  Lukas Wittmann         : regularized MP2, r2SCAN double-hybrids, wr2SCAN        
                                                                         
We gratefully acknowledge several colleagues who have allowed us to      
interface, adapt or use parts of their codes:                            
  Ed Valeev, F. Pavosevic, A. Kumar             : LibInt (2-el integral package), F12 methods 
  Garnet Chan, S. Sharma, J. Yang, R. Olivares  : DMRG                   
  Ulf Ekstrom                                   : XCFun DFT Library      
  Mihaly Kallay                                 : mrcc  (arbitrary order and MRCC methods)
  Frank Weinhold                                : gennbo (NPA and NBO analysis)           
  Simon Mueller                                 : openCOSMO-RS                            
  Christopher J. Cramer and Donald G. Truhlar   : smd solvation model                     
  S Lehtola, MJT Oliveira, MAL Marques          : LibXC Library                           
  Liviu Ungur et al                             : ANISO software                          


 Your calculation uses the libint2 library for the computation of 2-el integrals
 For citations please refer to: http://libint.valeyev.net

 Your ORCA version has been built with support for libXC version: 7.0.0
 For citations please refer to: https://libxc.gitlab.io

 This ORCA versions uses:
   CBLAS   interface :  Fast vector & matrix operations
   LAPACKE interface :  Fast linear algebra routines
   SCALAPACK package :  Parallel linear algebra routines
   Shared memory     :  Shared parallel matrices
   BLAS/LAPACK       :  OpenBLAS 0.3.29  USE64BITINT DYNAMIC_ARCH NO_AFFINITY Cooperlake SINGLE_THREADED
        Core in use  :  Cooperlake
   Copyright (c) 2011-2014, The OpenBLAS Project


  ***********************************
  * Starting time: Tue Jul 21 13:10:29 2026
  * Host name:     c1-39
  * Process ID:    3263392
  * Working dir.:  /cluster/projects/nn14654k/ylvaos/TPhP_bsse/orca/opt1_bp86_pme3/for_mrchem_init_guess
  ***********************************

================================================================================



################################################################################


                                COMPOUND JOB MainJOB 
Basename: x2csvp_pme3_Compound_0

################################################################################

================================================================================
                                       INPUT FILE
================================================================================
NAME = x2csvp_pme3_Compound_0.inp
|  1> #
|  2>  
|  3> #
|  4>  
|  5> 
|  6>                          ****END OF INPUT****
================================================================================
================================================================================



################################################################################


                                COMPOUND JOB  1 
Basename: x2csvp_pme3_Compound_1
NOTE: please remember that MaxCore and PAL settings will be ignored.

################################################################################

================================================================================
                                       INPUT FILE
================================================================================
NAME = x2csvp_pme3_Compound_1.inp
|  1>   ! BP86 X2C-SVPall VeryTightSCF defgrid3 NOAUTOSTART
|  2>   %loc
|  3>     LocMet NEWBOYS
|  4>     Occ true
|  5>   end
|  6>   %id "TPhP"
|  7>   * xyz 0 1
|  8>     P           0.79012846627248     -4.34118324120391      0.17040736969510
|  9>     C          -0.73847184295114     -3.75497214260747      1.03509613960602
| 10>     H          -0.84310836738516     -2.66612329428791      0.90444342369554
| 11>     H          -0.72447173124439     -3.98300472512442      2.11444163339169
| 12>     H          -1.62428077073773     -4.22992069480920      0.58413382086226
| 13>     C           0.82734183408939     -6.08744623952562      0.78455518207468
| 14>     H           0.72997345421910     -6.14932031048665      1.88177154973096
| 15>     H           1.77406273774341     -6.56484615538673      0.48552094199909
| 16>     H           0.00686568481859     -6.65984665867268      0.32328118267064
| 17>     C           2.06606918397924     -3.60522027040696      1.29216567322978
| 18>     H           3.06389853325917     -3.98043357498179      1.01438550382425
| 19>     H           1.88039990166628     -3.84319510135054      2.35333406700495
| 20>     H           2.07787291627075     -2.51028759115611      1.17145351221505
| 21>   *
| 22> 
| 23>                          ****END OF INPUT****
================================================================================
Warning: RI is on but no J-basis has been assigned. Assigning Def2/J (nothing to worry about!)
================================================================================

----- Orbital basis set information -----
Your calculation utilizes the basis: x2c-SVPall
   P. Pollak; F. Weigend. J. Chem. Theory Comput., 13, 3696 – 3705, (2017).
   Y. J. Franzke; R. Treß; T. M. Pazedera; F. Weigend.
   Phys. Chem. Chem. Phys. 21, 16658 (2019).

----- AuxJ basis set information -----
Your calculation utilizes the auxiliary basis: def2/J
   H-Rn: F. Weigend, Phys. Chem. Chem. Phys. 8, 1057 (2006).
   Fr-Lr: K. Eichkorn, F. Weigend, O. Treutler, R. Ahlrichs; Theor. Chem. Acc. 97, 119 (1997).

================================================================================
                                        WARNINGS
                       Please study these warnings very carefully!
================================================================================



                       ****************************
                       * Single Point Calculation *
                       ****************************

---------------------------------
CARTESIAN COORDINATES (ANGSTROEM)
---------------------------------
  P      0.790128   -4.341183    0.170407
  C     -0.738472   -3.754972    1.035096
  H     -0.843108   -2.666123    0.904443
  H     -0.724472   -3.983005    2.114442
  H     -1.624281   -4.229921    0.584134
  C      0.827342   -6.087446    0.784555
  H      0.729973   -6.149320    1.881772
  H      1.774063   -6.564846    0.485521
  H      0.006866   -6.659847    0.323281
  C      2.066069   -3.605220    1.292166
  H      3.063899   -3.980434    1.014386
  H      1.880400   -3.843195    2.353334
  H      2.077873   -2.510288    1.171454

----------------------------
CARTESIAN COORDINATES (A.U.)
----------------------------
  NO LB      ZA    FRAG     MASS         X           Y           Z
   0 P    15.0000    0    30.974    1.493126   -8.203647    0.322023
   1 C     6.0000    0    12.011   -1.395510   -7.095869    1.956048
   2 H     1.0000    0     1.008   -1.593244   -5.038243    1.709150
   3 H     1.0000    0     1.008   -1.369053   -7.526788    3.995716
   4 H     1.0000    0     1.008   -3.069446   -7.993392    1.103853
   5 C     6.0000    0    12.011    1.563449  -11.503606    1.482594
   6 H     1.0000    0     1.008    1.379450  -11.620531    3.556033
   7 H     1.0000    0     1.008    3.352493  -12.405761    0.917502
   8 H     1.0000    0     1.008    0.012974  -12.585286    0.610913
   9 C     6.0000    0    12.011    3.904305   -6.812879    2.441839
  10 H     1.0000    0     1.008    5.789929   -7.521929    1.916911
  11 H     1.0000    0     1.008    3.553441   -7.262586    4.447157
  12 H     1.0000    0     1.008    3.926611   -4.743756    2.213726

--------------------------------
INTERNAL COORDINATES (ANGSTROEM)
--------------------------------
 P      0   0   0     0.000000000000     0.00000000     0.00000000
 C      1   0   0     1.851472124091     0.00000000     0.00000000
 H      2   1   0     1.101640026918   109.63170118     0.00000000
 H      2   1   3     1.103259514698   112.39475459   238.92246002
 H      2   1   3     1.101635419144   109.64422013   117.83202499
 C      1   2   3     1.851485033562    99.22451866   171.55416982
 H      6   1   2     1.103264591795   112.39617737   309.51282737
 H      6   1   2     1.101640878788   109.63084172   188.43697444
 H      6   1   2     1.101633811159   109.64568636    70.60327990
 C      1   2   3     1.851488023465    99.21579175    70.56318703
 H     10   1   2     1.101639803534   109.63621287   171.54980969
 H     10   1   2     1.103260378381   112.39783031    50.46905011
 H     10   1   2     1.101629849815   109.63804142   289.38000054

---------------------------
INTERNAL COORDINATES (A.U.)
---------------------------
 P      0   0   0     0.000000000000     0.00000000     0.00000000
 C      1   0   0     3.498775259122     0.00000000     0.00000000
 H      2   1   0     2.081797949040   109.63170118     0.00000000
 H      2   1   3     2.084858337423   112.39475459   238.92246002
 H      2   1   3     2.081789241609   109.64422013   117.83202499
 C      1   2   3     3.498799654485    99.22451866   171.55416982
 H      6   1   2     2.084867931745   112.39617737   309.51282737
 H      6   1   2     2.081799558842   109.63084172   188.43697444
 H      6   1   2     2.081786202958   109.64568636    70.60327990
 C      1   2   3     3.498805304585    99.21579175    70.56318703
 H     10   1   2     2.081797526905   109.63621287   171.54980969
 H     10   1   2     2.084859969546   112.39783031    50.46905011
 H     10   1   2     2.081778717104   109.63804142   289.38000054

---------------------
BASIS SET INFORMATION
---------------------
There are 3 groups of distinct atoms

 Group   1 Type P   : 10s7p1d contracted to 4s3p1d pattern {5311/511/1}
 Group   2 Type C   : 7s4p1d contracted to 3s2p1d pattern {511/31/1}
 Group   3 Type H   : 4s1p contracted to 2s1p pattern {31/1}

Atom   0P    basis set group =>   1
Atom   1C    basis set group =>   2
Atom   2H    basis set group =>   3
Atom   3H    basis set group =>   3
Atom   4H    basis set group =>   3
Atom   5C    basis set group =>   2
Atom   6H    basis set group =>   3
Atom   7H    basis set group =>   3
Atom   8H    basis set group =>   3
Atom   9C    basis set group =>   2
Atom  10H    basis set group =>   3
Atom  11H    basis set group =>   3
Atom  12H    basis set group =>   3
---------------------------------
AUXILIARY/J BASIS SET INFORMATION
---------------------------------
There are 3 groups of distinct atoms

 Group   1 Type P   : 14s5p5d2f1g contracted to 8s4p3d1f1g pattern {71111111/2111/311/2/1}
 Group   2 Type C   : 12s5p4d2f1g contracted to 6s4p3d1f1g pattern {711111/2111/211/2/1}
 Group   3 Type H   : 5s2p1d contracted to 3s1p1d pattern {311/2/1}

Atom   0P    basis set group =>   1
Atom   1C    basis set group =>   2
Atom   2H    basis set group =>   3
Atom   3H    basis set group =>   3
Atom   4H    basis set group =>   3
Atom   5C    basis set group =>   2
Atom   6H    basis set group =>   3
Atom   7H    basis set group =>   3
Atom   8H    basis set group =>   3
Atom   9C    basis set group =>   2
Atom  10H    basis set group =>   3
Atom  11H    basis set group =>   3
Atom  12H    basis set group =>   3
------------------------------------------------------------------------------
                             ORCA STARTUP CALCULATIONS
                           -- RI-GTO INTEGRALS CHOSEN --
------------------------------------------------------------------------------
------------------------------------------------------------------------------
                   ___                                                        
                  /   \      - P O W E R E D   B Y -                         
                 /     \                                                     
                 |  |  |   _    _      __       _____    __    __             
                 |  |  |  | |  | |    /  \     |  _  \  |  |  /  |          
                  \  \/   | |  | |   /    \    | | | |  |  | /  /          
                 / \  \   | |__| |  /  /\  \   | |_| |  |  |/  /          
                |  |  |   |  __  | /  /__\  \  |    /   |      \           
                |  |  |   | |  | | |   __   |  |    \   |  |\   \          
                \     /   | |  | | |  |  |  |  | |\  \  |  | \   \       
                 \___/    |_|  |_| |__|  |__|  |_| \__\ |__|  \__/        
                                                                              
                      - O R C A' S   B I G   F R I E N D -                    
                                      &                                       
                       - I N T E G R A L  F E E D E R -                       
                                                                              
 v1 FN, 2020, v2 2021, v3 2022-2024                                           
------------------------------------------------------------------------------


----------------------
SHARK INTEGRAL PACKAGE
----------------------

Number of atoms                             ...     13
Number of basis functions                   ...    105
Number of shells                            ...     53
Maximum angular momentum                    ...      2
Integral batch strategy                     ... SHARK/LIBINT Hybrid
RI-J (if used) integral strategy            ... SPLIT-RIJ (Revised 2003 algorithm where possible)
Printlevel                                  ...      1
Contraction scheme used                     ... SEGMENTED contraction
Prescreening option                         ... SCHWARTZ
   Thresh                                   ... 1.000e-12
   Tcut                                     ... 1.000e-14
   Tpresel                                  ... 1.000e-14 
Coulomb Range Separation                    ... NOT USED
Exchange Range Separation                   ... NOT USED
Multipole approximations                    ... NOT USED
Finite Nucleus Model                        ... NOT USED
CABS basis                                  ... NOT available
Auxiliary Coulomb fitting basis             ... AVAILABLE
   # of basis functions in Aux-J            ...    297
   # of shells in Aux-J                     ...    107
   Maximum angular momentum in Aux-J        ...      4
Auxiliary J/K fitting basis                 ... NOT available
Auxiliary Correlation fitting basis         ... NOT available
Auxiliary 'external' fitting basis          ... NOT available

Checking pre-screening integrals            ... done (  0.0 sec) Dimension = 53
   => SHARK Basis and OBASIS are compatible. Storing Pre-screening
Shell pair information
Shell pair cut-off parameter TPreSel        ...   1.0e-14
Total number of shell pairs                 ...      1431
Shell pairs after pre-screening             ...      1419
Total number of primitive shell pairs       ...      5039
Primitive shell pairs kept                  ...      4028
          la=0 lb=0:    490 shell pairs
          la=1 lb=0:    552 shell pairs
          la=1 lb=1:    171 shell pairs
          la=2 lb=0:    124 shell pairs
          la=2 lb=1:     72 shell pairs
          la=2 lb=2:     10 shell pairs

Checking whether 4 symmetric matrices of dimension 105 fit in memory
:Max Core in MB      =   4096.00
 MB in use           =      5.11
 MB left             =   4090.89
 MB needed           =      0.17
 Data fit in memory  = YES
Calculating RI/J V-Matrix + Cholesky decomp.... done (  0.0 sec)
Calculating Nuclear repulsion               ... done (  0.0 sec) ENN=    176.705969595589 Eh

Diagonalization of the overlap matrix:
Smallest eigenvalue                        ... 2.912e-03
Time for diagonalization                   ...    0.001 sec
Threshold for overlap eigenvalues          ... 1.000e-07
Number of eigenvalues below threshold      ... 0
Time for construction of square roots      ...    0.001 sec
Total time needed                          ...    0.003 sec

-------------------
DFT GRID GENERATION
-------------------

General Integration Accuracy     IntAcc      ... 4.959
Radial Grid Type                 RadialGrid  ... OptM3 with GC (2021)
Angular Grid (max. ang.)         AngularGrid ... 6 (Lebedev-590)
Angular grid pruning method      GridPruning ... 4 (adaptive)
Weight generation scheme         WeightScheme... mBecke (2022)
Basis function cutoff            BFCut       ... 1.0000e-12
Integration weight cutoff        WCut        ... 1.0000e-14
Partially contracted basis set               ... off
Rotationally invariant grid construction     ... off
Angular grids for H and He will be reduced by one unit

Total number of grid points                  ...   138307
Total number of batches                      ...     2168
Average number of points per batch           ...       63
Average number of grid points per atom       ...    10639
Grids setup in   1.1 sec
Initializing property integral containers    ... done (  0.0 sec)

SHARK setup successfully completed in   1.1 seconds

Maximum memory used throughout the entire STARTUP-calculation: 46.6 MB
-------------------------------------------------------------------------------
                                 ORCA GUESS
                   Start orbitals & Density for SCF / CASSCF
-------------------------------------------------------------------------------

------------
SCF SETTINGS
------------
Hamiltonian:
 Density Functional     Method          .... DFT(GTOs)
 Exchange Functional    Exchange        .... B88
   X-Alpha parameter    XAlpha          ....  0.666667
   Becke's b parameter  XBeta           ....  0.004200
 Correlation Functional Correlation     .... P86
 LDA part of GGA corr.  LDAOpt          .... PW91-LDA
 Gradients option       PostSCFGGA      .... off
   NL short-range parameter             ....  4.400000
 RI-approximation to the Coulomb term is turned on
   Number of AuxJ basis functions       .... 297


General Settings:
 Integral files         IntName         .... x2csvp_pme3_Compound_1
 Hartree-Fock type      HFTyp           .... RHF
 Total Charge           Charge          ....    0
 Multiplicity           Mult            ....    1
 Number of Electrons    NEL             ....   42
 Basis Dimension        Dim             ....  105
 Nuclear Repulsion      ENuc            ....    176.7059695956 Eh

Convergence Acceleration:
 AO-DIIS                CNVDIIS         .... on
   Start iteration      DIISMaxIt       ....    12
   Startup error        DIISStart       ....  0.200000
   # of expansion vecs  DIISMaxEq       ....     5
   Bias factor          DIISBfac        ....   1.050
   Max. coefficient     DIISMaxC        ....  10.000
 MO-DIIS                CNVKDIIS        .... off
 Trust-Rad. Augm. Hess. CNVTRAH         .... auto
   Auto Start mean grad. ratio tolernc. ....  1.125000
   Auto Start start iteration           ....    50
   Auto Start num. interpolation iter.  ....    10
   Max. Number of Micro iterations      ....    24
   Max. Number of Macro iterations      .... Maxiter - #DIIS iter
   Number of Davidson start vectors     ....     2
   Converg. threshold    (grad. norm)   ....   2.000e-06
   Grad. Scal. Fac. for Micro threshold ....   0.100
   Minimum threshold for Micro iter.    ....   1.000e-02
   NR start threshold (gradient norm)   ....   1.000e-04
   Initial trust radius                 ....   0.400
   Minimum AH scaling param. (alpha)    ....   1.000
   Maximum AH scaling param. (alpha)    .... 1000.000
   Quad. conv. algorithm                .... NR
   White noise on init. David. guess    .... on
   Maximum white noise                  ....   0.010
   Pseudo random numbers                .... off
   Inactive MOs                         .... canonical
   Orbital update algorithm             .... Taylor
   Preconditioner                       .... Diag
   Full preconditioner red. dimension   ....   250
 SOSCF                 CNVSOSCF           .... on
   Start iteration     SOSCFMaxIt         ....   150
   Startup grad/error  SOSCFStart         ....  0.003300
   Hessian update      SOSCFHessUp        .... L-BFGS
   Autom. constraints  SOSCFAutoConstrain .... off
 Level Shifting         CNVShift        .... on
   Level shift para.    LevelShift      ....    0.2500
   Turn off err/grad.   ShiftErr        ....    0.0010
 Zerner damping         CNVZerner       .... off
 Static damping         CNVDamp         .... on
   Fraction old density DampFac         ....    0.7000
   Max. Damping (<1)    DampMax         ....    0.9800
   Min. Damping (>=0)   DampMin         ....    0.0000
   Turn off err/grad.   DampErr         ....    0.1000

SCF Procedure:
 Maximum # iterations   MaxIter         ....   125
 SCF integral mode      SCFMode         .... Direct
   Integral package                     .... SHARK and LIBINT hybrid scheme
 Reset frequency        DirectResetFreq ....    20
 Integral Threshold     Thresh          ....  1.000e-12 Eh
 Primitive CutOff       TCut            ....  1.000e-14 Eh

Convergence Tolerance:
 Convergence Check Mode ConvCheckMode   .... Total+1el-Energy
 Convergence forced     ConvForced      .... 0
 Energy Change          TolE            ....  1.000e-09 Eh
 1-El. energy change                    ....  1.000e-06 Eh
 Orbital Gradient       TolG            ....  2.000e-06
 Orbital Rotation angle TolX            ....  2.000e-06
 DIIS Error             TolErr          ....  1.000e-08

------------------------------
INITIAL GUESS: MODEL POTENTIAL
------------------------------
Loading Hartree-Fock densities                     ... done
Calculating cut-offs                               ... done
Initializing the effective Hamiltonian             ... done
Setting up the integral package (SHARK)            ... done
Starting the Coulomb interaction                   ... done (   0.0 sec)
Making the grid                                    ... done (   0.1 sec)
Mapping shells                                     ... done
Starting the XC term evaluation                    ... done (   0.0 sec)
  promolecular density results
     # of electrons  =     41.997863083
     EX              =    -40.704265228
     EC              =     -1.577132095
     EX+EC           =    -42.281397323
Transforming the Hamiltonian                       ... done (   0.0 sec)
Diagonalizing the Hamiltonian                      ... done (   0.0 sec)
Back transforming the eigenvectors                 ... done (   0.0 sec)
Now organizing SCF variables                       ... done
                      ------------------
                      INITIAL GUESS DONE (   0.1 sec)
                      ------------------
             **** ENERGY FILE WAS UPDATED (x2csvp_pme3_Compound_1.en.tmp) ****
Finished Guess after   0.2 sec
Maximum memory used throughout the entire GUESS-calculation: 8.3 MB

-------------------------------------------------------------------------------------------
                                      ORCA LEAN-SCF
                              memory conserving SCF solver
-------------------------------------------------------------------------------------------

----------------------------------------D-I-I-S--------------------------------------------
Iteration    Energy (Eh)           Delta-E    RMSDP     MaxDP     DIISErr   Damp  Time(sec)
-------------------------------------------------------------------------------------------
               ***  Starting incremental Fock matrix formation  ***
    1    -460.6877540507584854     0.00e+00  4.51e-03  8.52e-02  1.69e-01  0.700   0.4
    2    -460.7712876629514085    -8.35e-02  3.18e-03  5.42e-02  7.79e-02  0.700   0.4
                               ***Turning on AO-DIIS***
    3    -460.7987054303781633    -2.74e-02  1.41e-03  3.30e-02  1.94e-02  0.700   0.4
    4    -460.8146780582451356    -1.60e-02  2.53e-03  6.62e-02  1.01e-02  0.000   0.4
    5    -460.8515078069165156    -3.68e-02  5.09e-04  8.89e-03  8.20e-03  0.000   0.4
                              *** Initializing SOSCF ***
---------------------------------------S-O-S-C-F--------------------------------------
Iteration    Energy (Eh)           Delta-E    RMSDP     MaxDP     MaxGrad    Time(sec)
--------------------------------------------------------------------------------------
    6    -460.8519811513644981    -4.73e-04  1.82e-04  2.39e-03  2.13e-03     0.4
               *** Restarting incremental Fock matrix formation ***
    7    -460.8520230057393974    -4.19e-05  1.50e-04  1.96e-03  3.73e-04     0.4
    8    -460.8520230382856653    -3.25e-08  4.45e-05  8.52e-04  3.98e-04     0.4
    9    -460.8520271708998735    -4.13e-06  2.70e-05  5.92e-04  7.09e-05     0.4
   10    -460.8520272212180089    -5.03e-08  1.18e-05  2.44e-04  6.26e-05     0.4
   11    -460.8520273121118862    -9.09e-08  3.06e-06  6.76e-05  8.40e-06     0.4
   12    -460.8520273131094882    -9.98e-10  1.48e-06  4.64e-05  9.78e-06     0.3
                 **** Energy Check signals convergence ****

               *****************************************************
               *                     SUCCESS                       *
               *           SCF CONVERGED AFTER  12 CYCLES          *
               *****************************************************

             **** ENERGY FILE WAS UPDATED (x2csvp_pme3_Compound_1.en.tmp) ****

----------------
TOTAL SCF ENERGY
----------------

Total Energy       :       -460.85202731440143 Eh          -12540.42121 eV

Components:
Nuclear Repulsion  :        176.70596959558875 Eh            4808.41389 eV
Electronic Energy  :       -637.55799690999015 Eh          -17348.83509 eV
One Electron Energy:       -982.29520165493432 Eh          -26729.61134 eV
Two Electron Energy:        344.73720474494417 Eh            9380.77625 eV

Virial components:
Potential Energy   :       -924.70431449472744 Eh          -25162.48363 eV
Kinetic Energy     :        463.85228718032602 Eh           12622.06243 eV
Virial Ratio       :          1.99353186359355

DFT components:
N(Alpha)           :       21.000002743706 electrons
N(Beta)            :       21.000002743706 electrons
N(Total)           :       42.000005487411 electrons
E(X)               :      -41.381079773532 Eh       
E(C)               :       -1.581597120429 Eh       
E(XC)              :      -42.962676893960 Eh       

---------------
SCF CONVERGENCE
---------------

  Last Energy change         ...    9.9760e-10  Tolerance :   1.0000e-09
  Last MAX-Density change    ...    4.6415e-05  Tolerance :   1.0000e-08
  Last RMS-Density change    ...    1.4772e-06  Tolerance :   1.0000e-09
  Last DIIS Error            ...    2.1306e-03  Tolerance :   1.0000e-08
  Last Orbital Gradient      ...    9.7816e-06  Tolerance :   2.0000e-06
  Last Orbital Rotation      ...    8.5466e-06  Tolerance :   2.0000e-06


----------------
ORBITAL ENERGIES
----------------

  NO   OCC          E(Eh)            E(eV) 
   0   2.0000     -76.208068     -2073.7269 
   1   2.0000      -9.907176      -269.5880 
   2   2.0000      -9.907175      -269.5879 
   3   2.0000      -9.907100      -269.5859 
   4   2.0000      -6.280407      -170.8986 
   5   2.0000      -4.509616      -122.7129 
   6   2.0000      -4.509616      -122.7129 
   7   2.0000      -4.505789      -122.6088 
   8   2.0000      -0.685601       -18.6561 
   9   2.0000      -0.614582       -16.7236 
  10   2.0000      -0.614572       -16.7233 
  11   2.0000      -0.472765       -12.8646 
  12   2.0000      -0.389177       -10.5901 
  13   2.0000      -0.378768       -10.3068 
  14   2.0000      -0.378752       -10.3064 
  15   2.0000      -0.352612        -9.5951 
  16   2.0000      -0.352611        -9.5950 
  17   2.0000      -0.339932        -9.2500 
  18   2.0000      -0.289334        -7.8732 
  19   2.0000      -0.289330        -7.8731 
  20   2.0000      -0.191769        -5.2183 
  21   0.0000       0.035339         0.9616 
  22   0.0000       0.037193         1.0121 
  23   0.0000       0.037203         1.0123 
  24   0.0000       0.073397         1.9972 
  25   0.0000       0.090505         2.4628 
  26   0.0000       0.090526         2.4633 
  27   0.0000       0.107420         2.9230 
  28   0.0000       0.107455         2.9240 
  29   0.0000       0.134064         3.6481 
  30   0.0000       0.137189         3.7331 
  31   0.0000       0.137237         3.7344 
*Only the first 10 virtual orbitals were printed.

                    ********************************
                    * MULLIKEN POPULATION ANALYSIS *
                    ********************************

-----------------------
MULLIKEN ATOMIC CHARGES
-----------------------
   0 P :    0.069891
   1 C :   -0.192301
   2 H :    0.061996
   3 H :    0.045017
   4 H :    0.062015
   5 C :   -0.192329
   6 H :    0.045020
   7 H :    0.061997
   8 H :    0.062011
   9 C :   -0.192337
  10 H :    0.061990
  11 H :    0.045021
  12 H :    0.062009
Sum of atomic charges:    0.0000000

--------------------------------
MULLIKEN REDUCED ORBITAL CHARGES
--------------------------------
  0 P s       :     5.829736  s :     5.829736
      pz      :     3.324486  p :     8.927694
      px      :     2.796363
      py      :     2.806845
      dz2     :     0.019812  d :     0.172678
      dxz     :     0.041824
      dyz     :     0.030616
      dx2y2   :     0.046493
      dxy     :     0.033934

  1 C s       :     3.089483  s :     3.089483
      pz      :     1.020982  p :     3.082902
      px      :     1.026979
      py      :     1.034941
      dz2     :     0.006690  d :     0.019915
      dxz     :     0.003698
      dyz     :     0.001728
      dx2y2   :     0.005004
      dxy     :     0.002796

  2 H s       :     0.914979  s :     0.914979
      pz      :     0.005197  p :     0.023025
      px      :     0.005192
      py      :     0.012636

  3 H s       :     0.932158  s :     0.932158
      pz      :     0.012516  p :     0.022826
      px      :     0.004945
      py      :     0.005365

  4 H s       :     0.914961  s :     0.914961
      pz      :     0.006399  p :     0.023023
      px      :     0.009984
      py      :     0.006640

  5 C s       :     3.089500  s :     3.089500
      pz      :     1.022535  p :     3.082914
      px      :     1.036586
      py      :     1.023793
      dz2     :     0.006456  d :     0.019915
      dxz     :     0.002565
      dyz     :     0.003202
      dx2y2   :     0.003184
      dxy     :     0.004509

  6 H s       :     0.932154  s :     0.932154
      pz      :     0.012800  p :     0.022826
      px      :     0.005093
      py      :     0.004933

  7 H s       :     0.914979  s :     0.914979
      pz      :     0.005717  p :     0.023024
      px      :     0.010834
      py      :     0.006473

  8 H s       :     0.914966  s :     0.914966
      pz      :     0.006506  p :     0.023023
      px      :     0.009428
      py      :     0.007089

  9 C s       :     3.089506  s :     3.089506
      pz      :     1.018846  p :     3.082916
      px      :     1.029922
      py      :     1.034148
      dz2     :     0.007206  d :     0.019915
      dxz     :     0.002985
      dyz     :     0.001732
      dx2y2   :     0.005651
      dxy     :     0.002341

 10 H s       :     0.914986  s :     0.914986
      pz      :     0.005536  p :     0.023024
      px      :     0.011379
      py      :     0.006109

 11 H s       :     0.932153  s :     0.932153
      pz      :     0.012227  p :     0.022826
      px      :     0.005209
      py      :     0.005390

 12 H s       :     0.914967  s :     0.914967
      pz      :     0.005125  p :     0.023024
      px      :     0.005188
      py      :     0.012711



                     *******************************
                     * LOEWDIN POPULATION ANALYSIS *
                     *******************************

----------------------
LOEWDIN ATOMIC CHARGES
----------------------
   0 P :    0.425139
   1 C :   -0.227108
   2 H :    0.032346
   3 H :    0.020708
   4 H :    0.032343
   5 C :   -0.227112
   6 H :    0.020711
   7 H :    0.032345
   8 H :    0.032341
   9 C :   -0.227103
  10 H :    0.032343
  11 H :    0.020709
  12 H :    0.032338

-------------------------------
LOEWDIN REDUCED ORBITAL CHARGES
-------------------------------
  0 P s       :     5.322464  s :     5.322464
      pz      :     3.394841  p :     9.028029
      px      :     2.810797
      py      :     2.822391
      dz2     :     0.023569  d :     0.224367
      dxz     :     0.055703
      dyz     :     0.038375
      dx2y2   :     0.063145
      dxy     :     0.043575

  1 C s       :     2.907163  s :     2.907163
      pz      :     1.087702  p :     3.266360
      px      :     1.093564
      py      :     1.085094
      dz2     :     0.017667  d :     0.053585
      dxz     :     0.010304
      dyz     :     0.004455
      dx2y2   :     0.013701
      dxy     :     0.007458

  2 H s       :     0.899561  s :     0.899561
      pz      :     0.013032  p :     0.068093
      px      :     0.015021
      py      :     0.040040

  3 H s       :     0.910519  s :     0.910519
      pz      :     0.040946  p :     0.068772
      px      :     0.014199
      py      :     0.013628

  4 H s       :     0.899565  s :     0.899565
      pz      :     0.017123  p :     0.068093
      px      :     0.033021
      py      :     0.017949

  5 C s       :     2.907165  s :     2.907165
      pz      :     1.086090  p :     3.266362
      px      :     1.083639
      py      :     1.096634
      dz2     :     0.017427  d :     0.053584
      dxz     :     0.006618
      dyz     :     0.008324
      dx2y2   :     0.009467
      dxy     :     0.011748

  6 H s       :     0.910518  s :     0.910518
      pz      :     0.041189  p :     0.068772
      px      :     0.012550
      py      :     0.015033

  7 H s       :     0.899562  s :     0.899562
      pz      :     0.014467  p :     0.068093
      px      :     0.032847
      py      :     0.020779

  8 H s       :     0.899566  s :     0.899566
      pz      :     0.017212  p :     0.068093
      px      :     0.027777
      py      :     0.023104

  9 C s       :     2.907163  s :     2.907163
      pz      :     1.089911  p :     3.266355
      px      :     1.090519
      py      :     1.085925
      dz2     :     0.018886  d :     0.053585
      dxz     :     0.008659
      dyz     :     0.004599
      dx2y2   :     0.015117
      dxy     :     0.006325

 10 H s       :     0.899564  s :     0.899564
      pz      :     0.014603  p :     0.068093
      px      :     0.037251
      py      :     0.016239

 11 H s       :     0.910518  s :     0.910518
      pz      :     0.040810  p :     0.068772
      px      :     0.014124
      py      :     0.013838

 12 H s       :     0.899568  s :     0.899568
      pz      :     0.013264  p :     0.068094
      px      :     0.014211
      py      :     0.040620



                      *****************************
                      * MAYER POPULATION ANALYSIS *
                      *****************************

  NA   - Mulliken gross atomic population
  ZA   - Total nuclear charge
  QA   - Mulliken gross atomic charge
  VA   - Mayer's total valence
  BVA  - Mayer's bonded valence
  FA   - Mayer's free valence

  ATOM       NA         ZA         QA         VA         BVA        FA
  0 P     14.9301    15.0000     0.0699     3.1193     3.1193     0.0000
  1 C      6.1923     6.0000    -0.1923     3.8892     3.8892     0.0000
  2 H      0.9380     1.0000     0.0620     0.9844     0.9844     0.0000
  3 H      0.9550     1.0000     0.0450     0.9913     0.9913    -0.0000
  4 H      0.9380     1.0000     0.0620     0.9844     0.9844     0.0000
  5 C      6.1923     6.0000    -0.1923     3.8892     3.8892     0.0000
  6 H      0.9550     1.0000     0.0450     0.9913     0.9913     0.0000
  7 H      0.9380     1.0000     0.0620     0.9844     0.9844    -0.0000
  8 H      0.9380     1.0000     0.0620     0.9844     0.9844    -0.0000
  9 C      6.1923     6.0000    -0.1923     3.8892     3.8892    -0.0000
 10 H      0.9380     1.0000     0.0620     0.9844     0.9844    -0.0000
 11 H      0.9550     1.0000     0.0450     0.9913     0.9913     0.0000
 12 H      0.9380     1.0000     0.0620     0.9844     0.9844    -0.0000

  Mayer bond orders larger than 0.100000
B(  0-P ,  1-C ) :   0.9929 B(  0-P ,  5-C ) :   0.9929 B(  0-P ,  9-C ) :   0.9929 
B(  1-C ,  2-H ) :   0.9652 B(  1-C ,  3-H ) :   0.9505 B(  1-C ,  4-H ) :   0.9652 
B(  5-C ,  6-H ) :   0.9505 B(  5-C ,  7-H ) :   0.9652 B(  5-C ,  8-H ) :   0.9652 
B(  9-C , 10-H ) :   0.9652 B(  9-C , 11-H ) :   0.9506 B(  9-C , 12-H ) :   0.9652 


-------
TIMINGS
-------

Total SCF time: 0 days 0 hours 0 min 5 sec 

Total time                  ....       5.034 sec
Sum of individual times     ....       4.689 sec  ( 93.1%)

SCF preparation             ....       0.037 sec  (  0.7%)
Fock matrix formation       ....       4.563 sec  ( 90.6%)
  Startup                   ....       0.004 sec  (  0.1% of F)
  Split-RI-J                ....       0.579 sec  ( 12.7% of F)
  XC integration            ....       4.234 sec  ( 92.8% of F)
    XC Preparation          ....       0.000 sec  (  0.0% of XC)
    Basis function eval.    ....       1.626 sec  ( 38.4% of XC)
    Density eval.           ....       0.768 sec  ( 18.1% of XC)
    XC-Functional eval.     ....       0.434 sec  ( 10.2% of XC)
    XC-Potential eval.      ....       1.172 sec  ( 27.7% of XC)
Diagonalization             ....       0.000 sec  (  0.0%)
Density matrix formation    ....       0.026 sec  (  0.5%)
Total Energy calculation    ....       0.003 sec  (  0.1%)
Population analysis         ....       0.004 sec  (  0.1%)
Orbital Transformation      ....       0.008 sec  (  0.2%)
Orbital Orthonormalization  ....       0.000 sec  (  0.0%)
DIIS solution               ....       0.024 sec  (  0.5%)
SOSCF solution              ....       0.025 sec  (  0.5%)
Finished LeanSCF after   5.0 sec

Maximum memory used throughout the entire LEANSCF-calculation: 18.0 MB
------------------------------------------------------------------------------
                           ORCA ORBITAL LOCALIZATION
------------------------------------------------------------------------------

Input orbitals are from                  ... x2csvp_pme3_Compound_1.gbw
Output orbitals are to                   ... x2csvp_pme3_Compound_1.loc
Max. number of iterations                ... 128
Localizations seeded randomly            ... on
Convergence tolerance                    ... 1.000e-06
Threshold for strong local MOs           ... 9.500e-01
Threshold for bond MOs                   ... 8.500e-01
Operator                                 ... 0
Orbital range for localization           ... 5 to 20
Localization criterion                   ... NEW-BOYS
Doing the dipole integrals               ... o.k.
Initial value of the localization sum :   112.122725
ITERATION   0 : L=  145.0400282880 DL=  3.29e+01 (AVERGE_DL)=    0.5237469421 
ITERATION   1 : L=  147.7872267982 DL=  2.75e+00 (AVERGE_DL)=    0.1513053896 
ITERATION   2 : L=  147.7982200445 DL=  1.10e-02 (AVERGE_DL)=    0.0095713315 
ITERATION   3 : L=  147.7982278397 DL=  7.80e-06 (AVERGE_DL)=    0.0002548728 
ITERATION   4 : L=  147.7982278641 DL=  2.44e-08 (AVERGE_DL)=    0.0000142537 
LOCALIZATION SUM CONVERGED


--------------------------------------------------------------------------------
                    LOCALIZED MOLECULAR ORBITAL COMPOSITIONS
--------------------------------------------------------------------------------

The Mulliken populations for each LMO on each atom are computed
The LMO`s will be ordered according to atom index and type
  (A) Strongly localized MO`s have populations of >=0.950 on one atom
  (B) Two center bond orbitals have populations of >=0.850 on two atoms
  (C) Other MO`s are considered to be `delocalized`

FOUND  -   4 strongly local MO`s
       -  12 two center bond MO`s
       -   0 significantly delocalized MO`s

Rather strongly localized orbitals:
MO   8:   0P  -   1.030616
MO   7:   0P  -   1.000465
MO   6:   0P  -   1.000465
MO   5:   0P  -   0.999547
Bond-like localized orbitals:
MO  20:  12H  -   0.482572  and   9C  -   0.519634
MO  19:  11H  -   0.488776  and   9C  -   0.510079
MO  18:  10H  -   0.482578  and   9C  -   0.519623
MO  17:   9C  -   0.577863  and   0P  -   0.457827
MO  16:   8H  -   0.482570  and   5C  -   0.519635
MO  15:   7H  -   0.482575  and   5C  -   0.519626
MO  14:   6H  -   0.488777  and   5C  -   0.510074
MO  13:   5C  -   0.577861  and   0P  -   0.457830
MO  12:   4H  -   0.482567  and   1C  -   0.519639
MO  11:   3H  -   0.488777  and   1C  -   0.510070
MO  10:   2H  -   0.482577  and   1C  -   0.519623
MO   9:   1C  -   0.577852  and   0P  -   0.457837
Localized MO's were stored in: x2csvp_pme3_Compound_1.loc

-------------------------   --------------------
FINAL SINGLE POINT ENERGY      -460.852027314401
-------------------------   --------------------


------------------------------------------------------------------------------
                              ORCA PROPERTY CALCULATIONS
------------------------------------------------------------------------------

GBWName                                 ... x2csvp_pme3_Compound_1.gbw
Number of atoms                         ...     13
Number of basis functions               ...    105
Max core memory                         ...   4096 MB

Electric properties:
Dipole moment                           ... YES
Quadrupole moment                       ...  NO
Static polarizability (Dipole/Dipole)   ...  NO
Static polarizability (Dipole/Quad.)    ...  NO
Static polarizability (Quad./Quad.)     ...  NO
Static polarizability (Velocity)        ...  NO
Static hyperpolarizability              ...  NO

Atomic electric properties:
Dipole moment                           ...  NO
Quadrupole moment                       ...  NO
Static polarizability                   ...  NO

Choice of electric origin               ... Center of mass
Position of electric origin             ...     1.409572    -8.368136     1.330716

General magnetic properties:
Magnetizability                         ...  NO

EPR properties:
g-Tensor (aka g-matrix)                 ...  NO
Zero-Field splitting spin-orbit         ...  NO
Zero-field splitting spin-spin          ...  NO
Hyperfine couplings                     ...  NO (   0 nuclei)
Quadrupole couplings                    ...  NO (   0 nuclei)
Contact density                         ...  NO (   0 nuclei)

NMR properties:
Chemical shifts                         ...  NO (   0 nuclei)
Spin-rotation constants                 ...  NO (   0 nuclei)
Spin-spin couplings                     ...  NO (   0 nuclei,    0 pairs)

Choice of magnetic origin               ... GIAO
Position of magnetic origin             ...     0.000000     0.000000     0.000000

Properties with geometric perturbations:
SCF Hessian                             ...  NO
IR spectrum                             ...  NO
VCD spectrum                            ...  NO
X-ray spectroscopy properties:
SCF XES/XAS/RIXS spectra                ...  NO

SCF SOC stabilization energy            ...  NO
Diagonal Born-Oppenheimer correction    ...  NO

-------------
DIPOLE MOMENT
-------------

Method             : SCF
Type of density    : Electron Density
Multiplicity       :   1
Irrep              :   0
Energy             :  -460.8520273144014254 Eh
Basis              : AO
                                X                 Y                 Z
Electronic contribution:      0.350548574       0.690709680      -4.236116473
Nuclear contribution   :     -0.388516246      -0.765396531       4.694127521
                        -----------------------------------------
Total Dipole Moment    :     -0.037967672      -0.074686851       0.458011048
                        -----------------------------------------
Magnitude (a.u.)       :      0.465611200
Magnitude (Debye)      :      1.183489617



--------------------
Rotational spectrum 
--------------------
 
Rotational constants in cm-1:             0.191869             0.191838             0.123283 
Rotational constants in MHz :          5752.094635          5751.164711          3695.919749 

Dipole components along the rotational axes: 
x,y,z [a.u.] :     0.000014     0.000042     0.465611 
x,y,z [Debye]:     0.000037     0.000107     1.183490 

 

Dipole moment calculation done in   0.0 sec 

Maximum memory used throughout the entire PROP-calculation: 6.2 MB

Timings for individual modules:

Sum of individual times          ...        6.434 sec (=   0.107 min)
Startup calculation              ...        1.163 sec (=   0.019 min)  18.1 %
SCF iterations                   ...        5.227 sec (=   0.087 min)  81.2 %
Property calculations            ...        0.040 sec (=   0.001 min)   0.6 %
Orbital localization             ...        0.004 sec (=   0.000 min)   0.1 %


################################################################################


                                COMPOUND JOB  2 
Basename: x2csvp_pme3_Compound_2
NOTE: please remember that MaxCore and PAL settings will be ignored.

################################################################################

================================================================================
                                       INPUT FILE
================================================================================
NAME = x2csvp_pme3_Compound_2.inp
|  1>   ! BP86 X2C-SVPall VeryTightSCF defgrid3 NOAUTOSTART
|  2>   %loc
|  3>     LocMet NEWBOYS
|  4>     Occ true
|  5>   end
|  6>   %id "15h"
|  7>   * xyz 0 1
|  8>     Ru         -2.70775091984899      1.50276279102189     -0.18711914139701
|  9>     P          -3.38504588836106      3.67946083066695     -0.16207483715779
| 10>     P          -1.62055459455718     -2.20016305460904      2.29735487816443
| 11>     H          -2.69118008722837     -0.00713465093794      0.54987525327963
| 12>     H          -2.38751419926777      1.77705060931180      1.31381715822003
| 13>     H          -2.21291556618394     -0.16319254934787     -0.18673321261484
| 14>     H          -4.21127550989430      1.20243209047466      0.09312615798198
| 15>     C          -4.47966302714830      4.05146447247549      1.25675788462765
| 16>     H          -5.35955582054120      3.39390266917945      1.20892814248856
| 17>     H          -4.79969140592201      5.10580322489288      1.25822496192156
| 18>     H          -3.94101493685396      3.82406251901183      2.18795984651579
| 19>     C          -2.10184584096084      4.98849211801541     -0.00279268212544
| 20>     H          -2.54694083325410      5.99379725084304      0.07231843494486
| 21>     H          -1.42840318033776      4.95984496951727     -0.87350987676986
| 22>     H          -1.50179474492610      4.78954684974026      0.89826027808079
| 23>     C          -4.37120279025580      4.30522837173582     -1.58326762118645
| 24>     H          -5.25535392598906      3.66304625251744     -1.71465563947749
| 25>     H          -3.76807750803721      4.25040330982236     -2.50283765781265
| 26>     H          -4.69709795786421      5.34685719918759     -1.43276836216906
| 27>     C          -0.17765774933626     -1.04305917672947      2.33232582349656
| 28>     H          -0.30216961364554     -0.26745484767068      1.56070659175310
| 29>     H          -0.14772496535820     -0.53246740927391      3.30826738225967
| 30>     H           0.78100394277776     -1.56652147891242      2.17672269728086
| 31>     C          -1.22449365462785     -3.15257312816276      0.76114599926750
| 32>     H          -1.90426000911072     -4.01633962183699      0.67825061098320
| 33>     H          -0.18282722652364     -3.51558615679121      0.74464447067782
| 34>     H          -1.39521631975208     -2.51846761785637     -0.12231712202386
| 35>     C          -1.04496479765717     -3.42859731424267      3.55726747167643
| 36>     H          -0.02296685382814     -3.79414273971732      3.35941360088995
| 37>     H          -1.06934113937280     -2.96833360006040      4.55761216252385
| 38>     H          -1.73269287613283     -4.28941218226521      3.57114634570010
| 39>   *
| 40> 
| 41>                          ****END OF INPUT****
================================================================================
Warning: RI is on but no J-basis has been assigned. Assigning Def2/J (nothing to worry about!)
================================================================================

----- Orbital basis set information -----
Your calculation utilizes the basis: x2c-SVPall
   P. Pollak; F. Weigend. J. Chem. Theory Comput., 13, 3696 – 3705, (2017).
   Y. J. Franzke; R. Treß; T. M. Pazedera; F. Weigend.
   Phys. Chem. Chem. Phys. 21, 16658 (2019).

----- AuxJ basis set information -----
Your calculation utilizes the auxiliary basis: def2/J
   H-Rn: F. Weigend, Phys. Chem. Chem. Phys. 8, 1057 (2006).
   Fr-Lr: K. Eichkorn, F. Weigend, O. Treutler, R. Ahlrichs; Theor. Chem. Acc. 97, 119 (1997).

================================================================================
                                        WARNINGS
                       Please study these warnings very carefully!
================================================================================


WARNING: MOInp is set but Guess=PModel. MOInp will be ignored!
         To read the initial guess from a file you must also specify
         'MORead' in the simple input or 'Guess MORead' in the %scf block

WARNING: The globally-selected AuxJ basis set is optimized for use with ECPs
         Make sure a suitable alternative is explicitly given all heavy elements (Z>36)


                       ****************************
                       * Single Point Calculation *
                       ****************************

---------------------------------
CARTESIAN COORDINATES (ANGSTROEM)
---------------------------------
  Ru    -2.707751    1.502763   -0.187119
  P     -3.385046    3.679461   -0.162075
  P     -1.620555   -2.200163    2.297355
  H     -2.691180   -0.007135    0.549875
  H     -2.387514    1.777051    1.313817
  H     -2.212916   -0.163193   -0.186733
  H     -4.211276    1.202432    0.093126
  C     -4.479663    4.051464    1.256758
  H     -5.359556    3.393903    1.208928
  H     -4.799691    5.105803    1.258225
  H     -3.941015    3.824063    2.187960
  C     -2.101846    4.988492   -0.002793
  H     -2.546941    5.993797    0.072318
  H     -1.428403    4.959845   -0.873510
  H     -1.501795    4.789547    0.898260
  C     -4.371203    4.305228   -1.583268
  H     -5.255354    3.663046   -1.714656
  H     -3.768078    4.250403   -2.502838
  H     -4.697098    5.346857   -1.432768
  C     -0.177658   -1.043059    2.332326
  H     -0.302170   -0.267455    1.560707
  H     -0.147725   -0.532467    3.308267
  H      0.781004   -1.566521    2.176723
  C     -1.224494   -3.152573    0.761146
  H     -1.904260   -4.016340    0.678251
  H     -0.182827   -3.515586    0.744644
  H     -1.395216   -2.518468   -0.122317
  C     -1.044965   -3.428597    3.557267
  H     -0.022967   -3.794143    3.359414
  H     -1.069341   -2.968334    4.557612
  H     -1.732693   -4.289412    3.571146

----------------------------
CARTESIAN COORDINATES (A.U.)
----------------------------
  NO LB      ZA    FRAG     MASS         X           Y           Z
   0 Ru   44.0000    0   101.070   -5.116908    2.839810   -0.353604
   1 P    15.0000    0    30.974   -6.396810    6.953173   -0.306277
   2 P    15.0000    0    30.974   -3.062404   -4.157706    4.341372
   3 H     1.0000    0     1.008   -5.085593   -0.013483    1.039114
   4 H     1.0000    0     1.008   -4.511748    3.358139    2.482755
   5 H     1.0000    0     1.008   -4.181804   -0.308389   -0.352875
   6 H     1.0000    0     1.008   -7.958157    2.272267    0.175983
   7 C     6.0000    0    12.011   -8.465336    7.656158    2.374928
   8 H     1.0000    0     1.008  -10.128093    6.413547    2.284543
   9 H     1.0000    0     1.008   -9.070102    9.648570    2.377701
  10 H     1.0000    0     1.008   -7.447439    7.226431    4.134645
  11 C     6.0000    0    12.011   -3.971913    9.426884   -0.005277
  12 H     1.0000    0     1.008   -4.813021   11.326635    0.136662
  13 H     1.0000    0     1.008   -2.699291    9.372749   -1.650694
  14 H     1.0000    0     1.008   -2.837981    9.050932    1.697466
  15 C     6.0000    0    12.011   -8.260376    8.135703   -2.991942
  16 H     1.0000    0     1.008   -9.931180    6.922154   -3.240230
  17 H     1.0000    0     1.008   -7.120635    8.032098   -4.729678
  18 H     1.0000    0     1.008   -8.876229   10.104096   -2.707540
  19 C     6.0000    0    12.011   -0.335724   -1.971096    4.407457
  20 H     1.0000    0     1.008   -0.571018   -0.505416    2.949308
  21 H     1.0000    0     1.008   -0.279160   -1.006218    6.251719
  22 H     1.0000    0     1.008    1.475884   -2.960297    4.113410
  23 C     6.0000    0    12.011   -2.313958   -5.957500    1.438357
  24 H     1.0000    0     1.008   -3.598530   -7.589782    1.281708
  25 H     1.0000    0     1.008   -0.345493   -6.643495    1.407174
  26 H     1.0000    0     1.008   -2.636577   -4.759214   -0.231146
  27 C     6.0000    0    12.011   -1.974697   -6.479110    6.722261
  28 H     1.0000    0     1.008   -0.043401   -7.169891    6.348372
  29 H     1.0000    0     1.008   -2.020762   -5.609338    8.612639
  30 H     1.0000    0     1.008   -3.274315   -8.105814    6.748489

--------------------------------
INTERNAL COORDINATES (ANGSTROEM)
--------------------------------
 Ru     0   0   0     0.000000000000     0.00000000     0.00000000
 P      1   0   0     2.279774122000     0.00000000     0.00000000
 P      1   2   0     4.589800303046   146.58685106     0.00000000
 H      1   2   3     1.680245700936   148.88137067    28.48582907
 H      1   2   3     1.559036606363    83.25033288   344.10742079
 H      4   1   2     0.892010679181    78.48019873   179.35894536
 H      1   2   3     1.558628291282    83.99682515    78.24365313
 C      2   1   3     1.830207551742   112.35026945   327.89109314
 H      8   2   1     1.099493764080   108.86534407   301.45513942
 H      8   2   1     1.101839607377   111.66876417   179.97065560
 H      8   2   1     1.099541044000   108.75454026    58.62474100
 C      2   1   3     1.839982629760   118.23131412    86.10745393
 H     12   2   1     1.101993485535   111.91539770   184.17920926
 H     12   2   1     1.101133102451   109.85010021    63.02904784
 H     12   2   1     1.100698403160   108.81219152   304.97693324
 C      2   1   3     1.839532380793   118.39688357   209.24721833
 H     16   2   1     1.100628873151   108.92889042    55.27331596
 H     16   2   1     1.101078991592   109.55061687   297.17512532
 H     16   2   1     1.101747839305   112.00296756   176.28493462
 C      3   1   2     1.849882065746    71.96212816   281.81757672
 H     20   3   1     1.101118303546   109.82464398   346.38614604
 H     20   3   1     1.101844748897   109.13464764   103.75068212
 H     20   3   1     1.103293865940   112.22877154   224.35099387
 C      3   1   2     1.850374809585    90.94877523   181.78840264
 H     24   3   1     1.102291475827   109.49778542   242.17909238
 H     24   3   1     1.103231483796   112.57425669   120.93872462
 H     24   3   1     1.100792039065   109.67063170   359.52490219
 C      3   1   2     1.851414077895   167.77101397   326.60268785
 H     28   3  20     1.103290265280   112.69244943   309.02687838
 H     28   3  20     1.101420171022   109.50651323    70.23865938
 H     28   3  20     1.101891451131   109.44358660   187.87917642

---------------------------
INTERNAL COORDINATES (A.U.)
---------------------------
 Ru     0   0   0     0.000000000000     0.00000000     0.00000000
 P      1   0   0     4.308148737781     0.00000000     0.00000000
 P      1   2   0     8.673465582147   146.58685106     0.00000000
 H      1   2   3     3.175204212468   148.88137067    28.48582907
 H      1   2   3     2.946152218784    83.25033288   344.10742079
 H      4   1   2     1.685655892186    78.48019873   179.35894536
 H      1   2   3     2.945380615106    83.99682515    78.24365313
 C      2   1   3     3.458591041028   112.35026945   327.89109314
 H      8   2   1     2.077742100066   108.86534407   301.45513942
 H      8   2   1     2.082175101450   111.66876417   179.97065560
 H      8   2   1     2.077831446166   108.75454026    58.62474100
 C      2   1   3     3.477063261418   118.23131412    86.10745393
 H     12   2   1     2.082465889027   111.91539770   184.17920926
 H     12   2   1     2.080840000628   109.85010021    63.02904784
 H     12   2   1     2.080018538016   108.81219152   304.97693324
 C      2   1   3     3.476212414178   118.39688357   209.24721833
 H     16   2   1     2.079887145341   108.92889042    55.27331596
 H     16   2   1     2.080737745924   109.55061687   297.17512532
 H     16   2   1     2.082001684926   112.00296756   176.28493462
 C      3   1   2     3.495770484313    71.96212816   281.81757672
 H     20   3   1     2.080812034751   109.82464398   346.38614604
 H     20   3   1     2.082184817514   109.13464764   103.75068212
 H     20   3   1     2.084923251863   112.22877154   224.35099387
 C      3   1   2     3.496701635222    90.94877523   181.78840264
 H     24   3   1     2.083029009068   109.49778542   242.17909238
 H     24   3   1     2.084805366694   112.57425669   120.93872462
 H     24   3   1     2.080195484234   109.67063170   359.52490219
 C      3   1   2     3.498665567708   167.77101397   326.60268785
 H     28   3  20     2.084916447600   112.69244943   309.02687838
 H     28   3  20     2.081382481609   109.50651323    70.23865938
 H     28   3  20     2.082273071948   109.44358660   187.87917642

---------------------
BASIS SET INFORMATION
---------------------
There are 4 groups of distinct atoms

 Group   1 Type Ru  : 18s14p10d1f contracted to 6s5p5d1f pattern {733311/63311/52111/1}
 Group   2 Type P   : 10s7p1d contracted to 4s3p1d pattern {5311/511/1}
 Group   3 Type H   : 4s1p contracted to 2s1p pattern {31/1}
 Group   4 Type C   : 7s4p1d contracted to 3s2p1d pattern {511/31/1}

Atom   0Ru   basis set group =>   1
Atom   1P    basis set group =>   2
Atom   2P    basis set group =>   2
Atom   3H    basis set group =>   3
Atom   4H    basis set group =>   3
Atom   5H    basis set group =>   3
Atom   6H    basis set group =>   3
Atom   7C    basis set group =>   4
Atom   8H    basis set group =>   3
Atom   9H    basis set group =>   3
Atom  10H    basis set group =>   3
Atom  11C    basis set group =>   4
Atom  12H    basis set group =>   3
Atom  13H    basis set group =>   3
Atom  14H    basis set group =>   3
Atom  15C    basis set group =>   4
Atom  16H    basis set group =>   3
Atom  17H    basis set group =>   3
Atom  18H    basis set group =>   3
Atom  19C    basis set group =>   4
Atom  20H    basis set group =>   3
Atom  21H    basis set group =>   3
Atom  22H    basis set group =>   3
Atom  23C    basis set group =>   4
Atom  24H    basis set group =>   3
Atom  25H    basis set group =>   3
Atom  26H    basis set group =>   3
Atom  27C    basis set group =>   4
Atom  28H    basis set group =>   3
Atom  29H    basis set group =>   3
Atom  30H    basis set group =>   3
---------------------------------
AUXILIARY/J BASIS SET INFORMATION
---------------------------------
There are 4 groups of distinct atoms

 Group   1 Type Ru  : 11s5p5d3f3g contracted to 8s5p5d2f3g pattern {41111111/11111/11111/21/111}
 Group   2 Type P   : 14s5p5d2f1g contracted to 8s4p3d1f1g pattern {71111111/2111/311/2/1}
 Group   3 Type H   : 5s2p1d contracted to 3s1p1d pattern {311/2/1}
 Group   4 Type C   : 12s5p4d2f1g contracted to 6s4p3d1f1g pattern {711111/2111/211/2/1}

Atom   0Ru   basis set group =>   1
Atom   1P    basis set group =>   2
Atom   2P    basis set group =>   2
Atom   3H    basis set group =>   3
Atom   4H    basis set group =>   3
Atom   5H    basis set group =>   3
Atom   6H    basis set group =>   3
Atom   7C    basis set group =>   4
Atom   8H    basis set group =>   3
Atom   9H    basis set group =>   3
Atom  10H    basis set group =>   3
Atom  11C    basis set group =>   4
Atom  12H    basis set group =>   3
Atom  13H    basis set group =>   3
Atom  14H    basis set group =>   3
Atom  15C    basis set group =>   4
Atom  16H    basis set group =>   3
Atom  17H    basis set group =>   3
Atom  18H    basis set group =>   3
Atom  19C    basis set group =>   4
Atom  20H    basis set group =>   3
Atom  21H    basis set group =>   3
Atom  22H    basis set group =>   3
Atom  23C    basis set group =>   4
Atom  24H    basis set group =>   3
Atom  25H    basis set group =>   3
Atom  26H    basis set group =>   3
Atom  27C    basis set group =>   4
Atom  28H    basis set group =>   3
Atom  29H    basis set group =>   3
Atom  30H    basis set group =>   3
------------------------------------------------------------------------------
                             ORCA STARTUP CALCULATIONS
                           -- RI-GTO INTEGRALS CHOSEN --
------------------------------------------------------------------------------
------------------------------------------------------------------------------
                   ___                                                        
                  /   \      - P O W E R E D   B Y -                         
                 /     \                                                     
                 |  |  |   _    _      __       _____    __    __             
                 |  |  |  | |  | |    /  \     |  _  \  |  |  /  |          
                  \  \/   | |  | |   /    \    | | | |  |  | /  /          
                 / \  \   | |__| |  /  /\  \   | |_| |  |  |/  /          
                |  |  |   |  __  | /  /__\  \  |    /   |      \           
                |  |  |   | |  | | |   __   |  |    \   |  |\   \          
                \     /   | |  | | |  |  |  |  | |\  \  |  | \   \       
                 \___/    |_|  |_| |__|  |__|  |_| \__\ |__|  \__/        
                                                                              
                      - O R C A' S   B I G   F R I E N D -                    
                                      &                                       
                       - I N T E G R A L  F E E D E R -                       
                                                                              
 v1 FN, 2020, v2 2021, v3 2022-2024                                           
------------------------------------------------------------------------------


----------------------
SHARK INTEGRAL PACKAGE
----------------------

Number of atoms                             ...     31
Number of basis functions                   ...    283
Number of shells                            ...    135
Maximum angular momentum                    ...      3
Integral batch strategy                     ... SHARK/LIBINT Hybrid
RI-J (if used) integral strategy            ... SPLIT-RIJ (Revised 2003 algorithm where possible)
Printlevel                                  ...      1
Contraction scheme used                     ... SEGMENTED contraction
Prescreening option                         ... SCHWARTZ
   Thresh                                   ... 1.000e-12
   Tcut                                     ... 1.000e-14
   Tpresel                                  ... 1.000e-14 
Coulomb Range Separation                    ... NOT USED
Exchange Range Separation                   ... NOT USED
Multipole approximations                    ... NOT USED
Finite Nucleus Model                        ... NOT USED
CABS basis                                  ... NOT available
Auxiliary Coulomb fitting basis             ... AVAILABLE
   # of basis functions in Aux-J            ...    727
   # of shells in Aux-J                     ...    257
   Maximum angular momentum in Aux-J        ...      4
Auxiliary J/K fitting basis                 ... NOT available
Auxiliary Correlation fitting basis         ... NOT available
Auxiliary 'external' fitting basis          ... NOT available

Checking pre-screening integrals            ... done (  0.0 sec) Dimension = 135
   => SHARK Basis and OBASIS are compatible. Storing Pre-screening
Shell pair information
Shell pair cut-off parameter TPreSel        ...   1.0e-14
Total number of shell pairs                 ...      9180
Shell pairs after pre-screening             ...      7174
Total number of primitive shell pairs       ...     34443
Primitive shell pairs kept                  ...     18367
          la=0 lb=0:   2411 shell pairs
          la=1 lb=0:   2637 shell pairs
          la=1 lb=1:    732 shell pairs
          la=2 lb=0:    781 shell pairs
          la=2 lb=1:    426 shell pairs
          la=2 lb=2:     70 shell pairs
          la=3 lb=0:     67 shell pairs
          la=3 lb=1:     37 shell pairs
          la=3 lb=2:     12 shell pairs
          la=3 lb=3:      1 shell pairs

Checking whether 4 symmetric matrices of dimension 283 fit in memory
:Max Core in MB      =   4096.00
 MB in use           =     12.55
 MB left             =   4083.45
 MB needed           =      1.23
 Data fit in memory  = YES
Calculating RI/J V-Matrix + Cholesky decomp.... done (  0.0 sec)
Calculating Nuclear repulsion               ... done (  0.0 sec) ENN=   1105.894743444903 Eh

Diagonalization of the overlap matrix:
Smallest eigenvalue                        ... 1.714e-03
Time for diagonalization                   ...    0.005 sec
Threshold for overlap eigenvalues          ... 1.000e-07
Number of eigenvalues below threshold      ... 0
Time for construction of square roots      ...    0.003 sec
Total time needed                          ...    0.009 sec

-------------------
DFT GRID GENERATION
-------------------

General Integration Accuracy     IntAcc      ... 4.959
Radial Grid Type                 RadialGrid  ... OptM3 with GC (2021)
Angular Grid (max. ang.)         AngularGrid ... 6 (Lebedev-590)
Angular grid pruning method      GridPruning ... 4 (adaptive)
Weight generation scheme         WeightScheme... mBecke (2022)
Basis function cutoff            BFCut       ... 1.0000e-12
Integration weight cutoff        WCut        ... 1.0000e-14
Partially contracted basis set               ... off
Rotationally invariant grid construction     ... off
Angular grids for H and He will be reduced by one unit
Core-polarized basis detected: some atoms will have their core
                               angular grid increased.
Steep s-basis detected: some atoms will have their radial
                        grid points doubled.

Total number of grid points                  ...   367156
Total number of batches                      ...     5753
Average number of points per batch           ...       63
Average number of grid points per atom       ...    11844
Grids setup in   4.4 sec
Initializing property integral containers    ... done (  0.0 sec)

SHARK setup successfully completed in   4.5 seconds

Maximum memory used throughout the entire STARTUP-calculation: 158.8 MB
-------------------------------------------------------------------------------
                                 ORCA GUESS
                   Start orbitals & Density for SCF / CASSCF
-------------------------------------------------------------------------------

------------
SCF SETTINGS
------------
Hamiltonian:
 Density Functional     Method          .... DFT(GTOs)
 Exchange Functional    Exchange        .... B88
   X-Alpha parameter    XAlpha          ....  0.666667
   Becke's b parameter  XBeta           ....  0.004200
 Correlation Functional Correlation     .... P86
 LDA part of GGA corr.  LDAOpt          .... PW91-LDA
 Gradients option       PostSCFGGA      .... off
   NL short-range parameter             ....  4.400000
 RI-approximation to the Coulomb term is turned on
   Number of AuxJ basis functions       .... 727


General Settings:
 Integral files         IntName         .... x2csvp_pme3_Compound_2
 Hartree-Fock type      HFTyp           .... RHF
 Total Charge           Charge          ....    0
 Multiplicity           Mult            ....    1
 Number of Electrons    NEL             ....  132
 Basis Dimension        Dim             ....  283
 Nuclear Repulsion      ENuc            ....   1105.8947434449 Eh

Convergence Acceleration:
 AO-DIIS                CNVDIIS         .... on
   Start iteration      DIISMaxIt       ....    12
   Startup error        DIISStart       ....  0.200000
   # of expansion vecs  DIISMaxEq       ....     5
   Bias factor          DIISBfac        ....   1.050
   Max. coefficient     DIISMaxC        ....  10.000
 MO-DIIS                CNVKDIIS        .... off
 Trust-Rad. Augm. Hess. CNVTRAH         .... auto
   Auto Start mean grad. ratio tolernc. ....  1.125000
   Auto Start start iteration           ....    50
   Auto Start num. interpolation iter.  ....    10
   Max. Number of Micro iterations      ....    24
   Max. Number of Macro iterations      .... Maxiter - #DIIS iter
   Number of Davidson start vectors     ....     2
   Converg. threshold    (grad. norm)   ....   2.000e-06
[...]
  BVA  - Mayer's bonded valence
  FA   - Mayer's free valence

  ATOM       NA         ZA         QA         VA         BVA        FA
  0 Ru    44.9822    44.0000    -0.9822     4.8891     4.8891    -0.0000
  1 P     14.8976    15.0000     0.1024     4.2996     4.2996     0.0000
  2 P     14.9017    15.0000     0.0983     4.2980     4.2980     0.0000
  3 P     14.9253    15.0000     0.0747     4.1780     4.1780    -0.0000
  4 C      6.1169     6.0000    -0.1169     3.9012     3.9012    -0.0000
  5 H      0.9351     1.0000     0.0649     1.0250     1.0250     0.0000
  6 H      0.9332     1.0000     0.0668     1.0247     1.0247     0.0000
  7 H      0.7861     1.0000     0.2139     0.9496     0.9496     0.0000
  8 H      0.9477     1.0000     0.0523     1.0237     1.0237     0.0000
  9 H      0.9519     1.0000     0.0481     1.0075     1.0075     0.0000
 10 H      0.9654     1.0000     0.0346     0.9919     0.9919     0.0000
 11 H      0.9362     1.0000     0.0638     0.9946     0.9946    -0.0000
 12 C      6.1184     6.0000    -0.1184     3.9014     3.9014    -0.0000
 13 H      0.9516     1.0000     0.0484     1.0069     1.0069    -0.0000
 14 H      0.9655     1.0000     0.0345     0.9919     0.9919     0.0000
 15 H      0.9354     1.0000     0.0646     0.9941     0.9941    -0.0000
 16 C      6.1009     6.0000    -0.1009     3.8944     3.8944     0.0000
 17 H      0.9270     1.0000     0.0730     0.9916     0.9916     0.0000
 18 H      0.9318     1.0000     0.0682     0.9967     0.9967     0.0000
 19 H      0.9733     1.0000     0.0267     0.9897     0.9897     0.0000
 20 C      6.1012     6.0000    -0.1012     3.8936     3.8936    -0.0000
 21 H      0.9731     1.0000     0.0269     0.9898     0.9898    -0.0000
 22 H      0.9314     1.0000     0.0686     0.9966     0.9966    -0.0000
 23 H      0.9273     1.0000     0.0727     0.9918     0.9918    -0.0000
 24 C      6.1326     6.0000    -0.1326     3.8906     3.8906    -0.0000
 25 H      0.9507     1.0000     0.0493     1.0105     1.0105    -0.0000
 26 H      0.9296     1.0000     0.0704     0.9979     0.9979    -0.0000
 27 H      0.9642     1.0000     0.0358     0.9926     0.9926    -0.0000
 28 C      6.1323     6.0000    -0.1323     3.8903     3.8903     0.0000
 29 H      0.9512     1.0000     0.0488     1.0106     1.0106     0.0000
 30 H      0.9643     1.0000     0.0357     0.9926     0.9926     0.0000
 31 H      0.9294     1.0000     0.0706     0.9979     0.9979     0.0000
 32 C      6.1203     6.0000    -0.1203     3.8963     3.8963    -0.0000
 33 H      0.9418     1.0000     0.0582     0.9941     0.9941    -0.0000
 34 H      0.9517     1.0000     0.0483     1.0112     1.0112     0.0000
 35 H      0.9659     1.0000     0.0341     0.9913     0.9913    -0.0000
 36 C      6.0932     6.0000    -0.0932     3.8824     3.8824     0.0000
 37 H      0.9672     1.0000     0.0328     0.9897     0.9897    -0.0000
 38 H      0.9545     1.0000     0.0455     1.0122     1.0122     0.0000
 39 H      0.9548     1.0000     0.0452     1.0124     1.0124     0.0000
 40 C      6.1201     6.0000    -0.1201     3.8971     3.8971     0.0000
 41 H      0.9521     1.0000     0.0479     1.0113     1.0113    -0.0000
 42 H      0.9658     1.0000     0.0342     0.9913     0.9913     0.0000
 43 H      0.9421     1.0000     0.0579     0.9943     0.9943     0.0000

  Mayer bond orders larger than 0.100000
B(  0-Ru,  1-P ) :   0.7994 B(  0-Ru,  2-P ) :   0.7945 B(  0-Ru,  3-P ) :   0.8018 
B(  0-Ru,  5-H ) :   0.4107 B(  0-Ru,  6-H ) :   0.4149 B(  0-Ru,  7-H ) :   0.7242 
B(  0-Ru,  8-H ) :   0.6368 B(  1-P , 12-C ) :   1.0206 B(  1-P , 16-C ) :   1.0210 
B(  1-P , 28-C ) :   1.0065 B(  2-P ,  4-C ) :   1.0220 B(  2-P , 20-C ) :   1.0202 
B(  2-P , 24-C ) :   1.0071 B(  3-P , 32-C ) :   1.0039 B(  3-P , 36-C ) :   1.0064 
B(  3-P , 40-C ) :   1.0043 B(  4-C ,  9-H ) :   0.9589 B(  4-C , 10-H ) :   0.9437 
B(  4-C , 11-H ) :   0.9558 B(  5-H ,  6-H ) :   0.4486 B( 12-C , 13-H ) :   0.9591 
B( 12-C , 14-H ) :   0.9436 B( 12-C , 15-H ) :   0.9561 B( 16-C , 17-H ) :   0.9545 
B( 16-C , 18-H ) :   0.9585 B( 16-C , 19-H ) :   0.9427 B( 20-C , 21-H ) :   0.9428 
B( 20-C , 22-H ) :   0.9584 B( 20-C , 23-H ) :   0.9545 B( 24-C , 25-H ) :   0.9539 
B( 24-C , 26-H ) :   0.9548 B( 24-C , 27-H ) :   0.9415 B( 28-C , 29-H ) :   0.9540 
B( 28-C , 30-H ) :   0.9414 B( 28-C , 31-H ) :   0.9545 B( 32-C , 33-H ) :   0.9546 
B( 32-C , 34-H ) :   0.9504 B( 32-C , 35-H ) :   0.9415 B( 36-C , 37-H ) :   0.9452 
B( 36-C , 38-H ) :   0.9538 B( 36-C , 39-H ) :   0.9539 B( 40-C , 41-H ) :   0.9505 
B( 40-C , 42-H ) :   0.9417 B( 40-C , 43-H ) :   0.9546 

-------
TIMINGS
-------

Total SCF time: 0 days 0 hours 1 min 26 sec 

Total time                  ....      86.741 sec
Sum of individual times     ....      83.878 sec  ( 96.7%)

SCF preparation             ....       0.066 sec  (  0.1%)
Fock matrix formation       ....      83.207 sec  ( 95.9%)
  Startup                   ....       0.007 sec  (  0.0% of F)
  Split-RI-J                ....      25.629 sec  ( 30.8% of F)
  XC integration            ....      60.177 sec  ( 72.3% of F)
    XC Preparation          ....       0.000 sec  (  0.0% of XC)
    Basis function eval.    ....      21.225 sec  ( 35.3% of XC)
    Density eval.           ....      17.427 sec  ( 29.0% of XC)
    XC-Functional eval.     ....       2.624 sec  (  4.4% of XC)
    XC-Potential eval.      ....      17.361 sec  ( 28.8% of XC)
Diagonalization             ....       0.000 sec  (  0.0%)
Density matrix formation    ....       0.082 sec  (  0.1%)
Total Energy calculation    ....       0.012 sec  (  0.0%)
Population analysis         ....       0.014 sec  (  0.0%)
Orbital Transformation      ....       0.037 sec  (  0.0%)
Orbital Orthonormalization  ....       0.000 sec  (  0.0%)
DIIS solution               ....       0.297 sec  (  0.3%)
SOSCF solution              ....       0.163 sec  (  0.2%)
Finished LeanSCF after  86.8 sec

Maximum memory used throughout the entire LEANSCF-calculation: 90.5 MB
------------------------------------------------------------------------------
                           ORCA ORBITAL LOCALIZATION
------------------------------------------------------------------------------

Input orbitals are from                  ... x2csvp_pme3_Compound_3.gbw
Output orbitals are to                   ... x2csvp_pme3_Compound_3.loc
Max. number of iterations                ... 128
Localizations seeded randomly            ... on
Convergence tolerance                    ... 1.000e-06
Threshold for strong local MOs           ... 9.500e-01
Threshold for bond MOs                   ... 8.500e-01
Operator                                 ... 0
Orbital range for localization           ... 29 to 86
Localization criterion                   ... NEW-BOYS
Doing the dipole integrals               ... o.k.
Initial value of the localization sum :  1664.997611
ITERATION   0 : L= 1788.3894083099 DL=  1.23e+02 (AVERGE_DL)=    0.2732163710 
ITERATION   1 : L= 1804.3735575849 DL=  1.60e+01 (AVERGE_DL)=    0.0983350486 
ITERATION   2 : L= 1804.6632720086 DL=  2.90e-01 (AVERGE_DL)=    0.0132388003 
ITERATION   3 : L= 1804.6896446637 DL=  2.64e-02 (AVERGE_DL)=    0.0039942984 
ITERATION   4 : L= 1804.6992586592 DL=  9.61e-03 (AVERGE_DL)=    0.0024116569 
ITERATION   5 : L= 1804.7032434654 DL=  3.98e-03 (AVERGE_DL)=    0.0015526271 
ITERATION   6 : L= 1804.7049934555 DL=  1.75e-03 (AVERGE_DL)=    0.0010289194 
ITERATION   7 : L= 1804.7057976429 DL=  8.04e-04 (AVERGE_DL)=    0.0006974968 
ITERATION   8 : L= 1804.7061773271 DL=  3.80e-04 (AVERGE_DL)=    0.0004792641 
ITERATION   9 : L= 1804.7063589680 DL=  1.82e-04 (AVERGE_DL)=    0.0003314900 
ITERATION  10 : L= 1804.7064464032 DL=  8.74e-05 (AVERGE_DL)=    0.0002299887 
ITERATION  11 : L= 1804.7064886126 DL=  4.22e-05 (AVERGE_DL)=    0.0001597969 
ITERATION  12 : L= 1804.7065090141 DL=  2.04e-05 (AVERGE_DL)=    0.0001110950 
ITERATION  13 : L= 1804.7065188855 DL=  9.87e-06 (AVERGE_DL)=    0.0000772776 
ITERATION  14 : L= 1804.7065236665 DL=  4.78e-06 (AVERGE_DL)=    0.0000537800 
ITERATION  15 : L= 1804.7065259804 DL=  2.31e-06 (AVERGE_DL)=    0.0000374141 
ITERATION  16 : L= 1804.7065271032 DL=  1.12e-06 (AVERGE_DL)=    0.0000260634 
ITERATION  17 : L= 1804.7065276475 DL=  5.44e-07 (AVERGE_DL)=    0.0000181460 
LOCALIZATION SUM CONVERGED


--------------------------------------------------------------------------------
                    LOCALIZED MOLECULAR ORBITAL COMPOSITIONS
--------------------------------------------------------------------------------

The Mulliken populations for each LMO on each atom are computed
The LMO`s will be ordered according to atom index and type
  (A) Strongly localized MO`s have populations of >=0.950 on one atom
  (B) Two center bond orbitals have populations of >=0.850 on two atoms
  (C) Other MO`s are considered to be `delocalized`

FOUND  -  14 strongly local MO`s
       -  43 two center bond MO`s
       -   1 significantly delocalized MO`s

Rather strongly localized orbitals:
MO  42:   3P  -   0.999461
MO  41:   3P  -   0.999441
MO  40:   3P  -   0.999665
MO  39:   2P  -   0.999361
MO  38:   2P  -   0.999466
MO  37:   2P  -   0.999687
MO  36:   1P  -   0.999696
MO  35:   1P  -   0.999483
MO  34:   1P  -   0.999367
MO  33:   0Ru -   0.955267
MO  32:   0Ru -   0.984414
MO  31:   0Ru -   0.972417
MO  30:   0Ru -   0.957987
MO  29:   0Ru -   0.973935
Bond-like localized orbitals:
MO  85:  43H  -   0.481422  and  40C  -   0.512199
MO  84:  42H  -   0.494437  and  40C  -   0.498551
MO  83:  41H  -   0.480100  and  40C  -   0.512727
MO  82:  40C  -   0.564858  and   3P  -   0.471173
MO  81:  39H  -   0.481335  and  36C  -   0.511797
MO  80:  38H  -   0.481334  and  36C  -   0.511714
MO  79:  37H  -   0.495998  and  36C  -   0.499375
MO  78:  36C  -   0.555707  and   3P  -   0.475561
MO  77:  35H  -   0.494497  and  32C  -   0.498403
MO  76:  34H  -   0.479988  and  32C  -   0.512862
MO  75:  33H  -   0.481312  and  32C  -   0.512303
MO  74:  32C  -   0.565049  and   3P  -   0.471251
MO  73:  31H  -   0.472816  and  28C  -   0.522016
MO  72:  30H  -   0.493336  and  28C  -   0.497522
MO  71:  29H  -   0.479924  and  28C  -   0.515314
MO  70:  28C  -   0.562137  and   1P  -   0.473086
MO  69:  27H  -   0.493260  and  24C  -   0.497627
MO  68:  26H  -   0.472907  and  24C  -   0.522073
MO  67:  25H  -   0.479702  and  24C  -   0.515631
MO  66:  24C  -   0.561679  and   2P  -   0.473285
MO  65:  23H  -   0.473858  and  20C  -   0.520379
MO  64:  22H  -   0.474182  and  20C  -   0.521662
MO  63:  21H  -   0.499503  and  20C  -   0.494608
MO  62:  20C  -   0.543719  and   2P  -   0.493204
MO  61:  19H  -   0.499642  and  16C  -   0.494395
MO  60:  18H  -   0.474390  and  16C  -   0.521547
MO  59:  17H  -   0.473736  and  16C  -   0.520507
MO  58:  16C  -   0.543531  and   1P  -   0.493770
MO  57:  15H  -   0.477383  and  12C  -   0.515655
MO  56:  14H  -   0.493852  and  12C  -   0.499455
MO  55:  13H  -   0.481765  and  12C  -   0.514495
MO  54:  12C  -   0.557530  and   1P  -   0.482408
MO  53:  11H  -   0.477726  and   4C  -   0.515108
MO  52:  10H  -   0.493765  and   4C  -   0.499539
MO  51:   9H  -   0.481668  and   4C  -   0.514518
MO  50:   8H  -   0.462358  and   0Ru -   0.430313
MO  49:   7H  -   0.390497  and   0Ru -   0.527722
MO  48:   4C  -   0.557274  and   2P  -   0.482935
MO  47:   3P  -   0.825374  and   0Ru -   0.183041
MO  46:   2P  -   0.772361  and   0Ru -   0.228543
MO  45:   1P  -   0.010878  and   0Ru -   0.940019
MO  44:   1P  -   0.770595  and   0Ru -   0.230105
MO  43:   1P  -   0.012055  and   0Ru -   0.930142
More delocalized orbitals:
MO  86:  0Ru- 0.190 5H - 0.401 6H - 0.396
Localized MO's were stored in: x2csvp_pme3_Compound_3.loc

-------------------------   --------------------
FINAL SINGLE POINT ENERGY     -5922.083401706368
-------------------------   --------------------


------------------------------------------------------------------------------
                              ORCA PROPERTY CALCULATIONS
------------------------------------------------------------------------------

GBWName                                 ... x2csvp_pme3_Compound_3.gbw
Number of atoms                         ...     44
Number of basis functions               ...    388
Max core memory                         ...   4096 MB

Electric properties:
Dipole moment                           ... YES
Quadrupole moment                       ...  NO
Static polarizability (Dipole/Dipole)   ...  NO
Static polarizability (Dipole/Quad.)    ...  NO
Static polarizability (Quad./Quad.)     ...  NO
Static polarizability (Velocity)        ...  NO
Static hyperpolarizability              ...  NO

Atomic electric properties:
Dipole moment                           ...  NO
Quadrupole moment                       ...  NO
Static polarizability                   ...  NO

Choice of electric origin               ... Center of mass
Position of electric origin             ...     1.600925     2.020314    -0.116822

General magnetic properties:
Magnetizability                         ...  NO

EPR properties:
g-Tensor (aka g-matrix)                 ...  NO
Zero-Field splitting spin-orbit         ...  NO
Zero-field splitting spin-spin          ...  NO
Hyperfine couplings                     ...  NO (   0 nuclei)
Quadrupole couplings                    ...  NO (   0 nuclei)
Contact density                         ...  NO (   0 nuclei)

NMR properties:
Chemical shifts                         ...  NO (   0 nuclei)
Spin-rotation constants                 ...  NO (   0 nuclei)
Spin-spin couplings                     ...  NO (   0 nuclei,    0 pairs)

Choice of magnetic origin               ... GIAO
Position of magnetic origin             ...     0.000000     0.000000     0.000000

Properties with geometric perturbations:
SCF Hessian                             ...  NO
IR spectrum                             ...  NO
VCD spectrum                            ...  NO
X-ray spectroscopy properties:
SCF XES/XAS/RIXS spectra                ...  NO

SCF SOC stabilization energy            ...  NO
Diagonal Born-Oppenheimer correction    ...  NO

-------------
DIPOLE MOMENT
-------------

Method             : SCF
Type of density    : Electron Density
Multiplicity       :   1
Irrep              :   0
Energy             : -5922.0834017063680221 Eh
Basis              : AO
                                X                 Y                 Z
Electronic contribution:     -2.639017171       8.813111438       5.621621824
Nuclear contribution   :      2.983998218      -9.453326456      -5.743679778
                        -----------------------------------------
Total Dipole Moment    :      0.344981046      -0.640215018      -0.122057954
                        -----------------------------------------
Magnitude (a.u.)       :      0.737418020
Magnitude (Debye)      :      1.874367647



--------------------
Rotational spectrum 
--------------------
 
Rotational constants in cm-1:             0.017652             0.011454             0.008545 
Rotational constants in MHz :           529.194214           343.381543           256.169975 

Dipole components along the rotational axes: 
x,y,z [a.u.] :    -0.007388     0.727549    -0.120014 
x,y,z [Debye]:    -0.018778     1.849282    -0.305052 

 

Dipole moment calculation done in   0.0 sec 

Maximum memory used throughout the entire PROP-calculation: 37.8 MB

Timings for individual modules:

Sum of individual times          ...       94.841 sec (=   1.581 min)
Startup calculation              ...        6.251 sec (=   0.104 min)   6.6 %
SCF iterations                   ...       88.494 sec (=   1.475 min)  93.3 %
Property calculations            ...        0.068 sec (=   0.001 min)   0.1 %
Orbital localization             ...        0.028 sec (=   0.000 min)   0.0 %

--------------------------------
SUGGESTED CITATIONS FOR THIS RUN
--------------------------------

Below you find a list of papers that are relevant to this ORCA run
We neither can nor want to force you to cite these papers, but we appreciate if you do
You receive ORCA, which is the product of decades of hard work by many enthusiastic individuals, for free
The only thing we kindly ask in return is that you cite our papers,
We deeply appreciate it, if you show your appreciation for ORCA by not just citing the generic ORCA reference.

Please note that relegating all ORCA citations to the supporting information does *not* help us.
SI sections are not indexed - citations you put there will not count into any citation statistics
But we need these citations in order to attract the funding resources that allow us to do what we are doing

Therefore, if you are a happy ORCA user, please consider citing a few of the papers listed below in the main body of your paper

In addition to the list printed below, the program has created the file x2csvp_pme3.bibtex that contains the list in bibtex format
You can import this file easily into all common literature databanks and citation aid programs

It goes without saying that in many instances, there are alternative algorithms to achieve similar
results as the ones you have gotten from ORCA. It is, of course, also the case that in some instances
ORCA just re-implements algorithms worked out by others. We are fully aware of that and we are also
fully appreciative of our colleagues work. Hence this citation list should not be read as indicating
that the listed papers, which are focused on our own work, are the only ones worth citing. It simply
meant to make it easier for users to cite ORCA specific papers. It is not a substitute for doing your
own literature research and citing the relevant literature in a scientifically appropriate manner.

List of essential papers. We consider these as the minimum necessary citations

  1. Neese, F.
     Software update: the ORCA program system, version 6.0
     WIRES Comput. Molec. Sci. 2025 15(1), e70019
     doi.org/10.1002/wcms.70019

List of papers to cite with high priority. The work reported in these papers was absolutely
necessary for this run to complete.
Our perspective: the developers of density functionals and basis sets usually get cited in chemistry papers
Good! But without the algorithms to do something with them, the functionals or basis sets would not do anything.
Hence, in our opinion, the algorithm design and method developments papers are equally worthy of getting cited

  1. Neese, F.
     An improvement of the resolution of the identity approximation for the formation of the Coulomb matrix
     J. Comp. Chem. 2003 24(14), 1740-1747
     doi.org/10.1002/jcc.10318
  2. Neese, F.
     The SHARK Integral Generation and Digestion System
     J. Comp. Chem. 2022 44(3), 381
     doi.org/10.1002/jcc.26942

List of suggested additional citations. These are papers that are important in the 'surrounding' of 
of this run, or papers that preceded the highly important papers. If you like your results we are grateful for a citation.

  1. Neese, F.
     The ORCA program system
     WIRES Comput. Molec. Sci. 2012 2(1), 73-78
     doi.org/10.1002/wcms.81
  2. Neese, F.
     Software update: the ORCA program system, version 4.0
     WIRES Comput. Molec. Sci. 2018 8(1), 1-6
     doi.org/10.1002/wcms.1327
  3. Neese, F.; Wennmohs, F.; Becker, U.; Riplinger, C.
     The ORCA quantum chemistry program package
     J. Chem. Phys. 2020 152(22), 224108
     doi.org/10.1063/5.0004608
  4. Neese, F.
     Software update: The ORCA program system—Version 5.0
     WIRES Comput. Molec. Sci. 2022 12(1), e1606
     doi.org/10.1002/wcms.1606

List of optional additional citations

  1. Neese, F.
     Approximate second-order SCF convergence for spin unrestricted wavefunctions
     Chem. Phys. Lett. 2000 325(1-3), 93-98
     doi.org/10.1016/s0009-2614(00)00662-x
                             ****ORCA TERMINATED NORMALLY****
TOTAL RUN TIME: 0 days 0 hours 2 minutes 24 seconds 591 msec
