
                                 *****************
                                 * O   R   C   A *
                                 *****************

                                            #,                                       
                                            ###                                      
                                            ####                                     
                                            #####                                    
                                            ######                                   
                                           ########,                                 
                                     ,,################,,,,,                         
                               ,,#################################,,                 
                          ,,##########################################,,             
                       ,#########################################, ''#####,          
                    ,#############################################,,   '####,        
                  ,##################################################,,,,####,       
                ,###########''''           ''''###############################       
              ,#####''   ,,,,##########,,,,          '''####'''          '####       
            ,##' ,,,,###########################,,,                        '##       
           ' ,,###''''                  '''############,,,                           
         ,,##''                                '''############,,,,        ,,,,,,###''
      ,#''                                            '''#######################'''  
     '                                                          ''''####''''         
             ,#######,   #######,   ,#######,      ##                                
            ,#'     '#,  ##    ##  ,#'     '#,    #''#        ,####,    ,#,          
            ##       ##  ##   ,#'  ##            #'  '#       #'       ,# #          
            ##       ##  #######   ##           ,######,      #####,      #          
            '#,     ,#'  ##    ##  '#,     ,#' ,#      #,     #,   #      #          
             '#######'   ##     ##  '#######'  #'      '#     '####' #    #          



                #########################################################
                #                        -***-                          #
                #          Department of theory and spectroscopy        #
                #                                                       #
                #                      Frank Neese                      #
                #                                                       #
                #     Directorship, Architecture, Infrastructure        #
                #                    SHARK, DRIVERS                     #
                #        Core code/Algorithms in most modules           #
                #                                                       #
                #        Max Planck Institute fuer Kohlenforschung      #
                #                Kaiser Wilhelm Platz 1                 #
                #                 D-45470 Muelheim/Ruhr                 #
                #                      Germany                          #
                #                                                       #
                #                  All rights reserved                  #
                #                        -***-                          #
                #########################################################


                         Program Version 6.1.1  -  RELEASE   -
                                (GIT: $487d211c$)
                          ($2025-11-21 10:33:24 +0100$)


 With contributions from (in alphabetic order):
[Max-Planck-Institut fuer Kohlenforschung]                               
  Daniel Aravena         : Magnetic Suceptibility                        
  Michael Atanasov       : Ab Initio Ligand Field Theory (pilot matlab implementation)
  Alexander A. Auer      : GIAO ZORA, VPT2 properties, NMR spectrum      
  Ute Becker             : All parallelization in ORCA, NUMFREQ, NUMCALC 
  Giovanni Bistoni       : ED, misc. LED, open-shell LED, HFLD           
  Dmytro Bykov           : pre 5.0 version of the SCF Hessian            
  Marcos Casanova-Páez   : Triplet and SCS-CIS(D). UHF-(DLPNO)-IP/EA/STEOM-CCSD. UHF-CVS-IP/STEOM-CCSD   
  Vijay G. Chilkuri      : MRCI spin determinant printing, contributions to CSF-ICE 
  Pauline Colinet        : FMM embedding                                 
  Dipayan Datta          : RHF DLPNO-CCSD density                        
  Achintya Kumar Dutta   : EOM-CC, STEOM-CC                              
  Nicolas Foglia         : Exact transition moments, OPA infrastructure, MCD improvements    
  Dmitry Ganyushin       : Spin-Orbit,Spin-Spin,Magnetic field MRCI      
  Miquel Garcia-Rates    : C-PCM and meta-GGA Hessian, CCSD/C-PCM, Gaussian charge scheme 
  Tiago L. C. Gouveia    : GS-ROHF, GS-ROCIS                             
  Yang Guo               : DLPNO-NEVPT2, F12-NEVPT2, CIM, IAO-localization        
  Andreas Hansen         : Spin unrestricted coupled pair/coupled cluster methods 
  Ingolf Harden          : AUTO-CI MPn and infrastructure                
  Benjamin Helmich-Paris : MC-RPA, TRAH-(SCF,CASSCF), AVAS, COSX integrals, SCF dyn. polar., MC-PDFT, srDFT 
  Lee Huntington         : MR-EOM, pCC                                   
  Robert Izsak           : Overlap fitted RIJCOSX, COSX-SCS-MP3, EOM     
  Riya Kayal             : Wick's Theorem for AUTO-CI, AUTO-CI UHF-CCSDT 
  Emily Kempfer          : AUTO-CI RHF CISDT and CCSDT, approximate NEVPT4
  Christian Kollmar      : KDIIS, OOCD, Brueckner-CCSD(T), CCSD density, CASPT2, CASPT2-K, improved NEVPT2 
  Axel Koslowski         : Symmetry handling                             
  Simone Kossmann        : meta-GGA functionals, TD-DFT gradient, OOMP2, (MP2 Hessian; deprecated post 5.0) 
  Lucas Lang             : DCDCAS, Hyperfine gauge corrections, ICE-SOC+SSC
  Marvin Lechner         : AUTO-CI (C++ implementation), FIC-MRCC        
  Spencer Leger          : CASSCF response                               
  Dagmar Lenk            : GEPOL surface, SMD, ORCA-2-JSON               
  Dimitrios Liakos       : Extrapolation schemes; Compound Job, Property file
  Dimitrios Manganas     : Further ROCIS development; embedding schemes. LFT, Crystal Embedding 
  Dimitrios Pantazis     : SARC Basis sets                               
  Anastasios Papadopoulos: AUTO-CI, single reference methods and gradients 
  Taras Petrenko         : pre 6.0 DFT Hessian and TD-DFT gradient,  ECA, NRVS 
  Petra Pikulova         : Analytic Raman intensities                    
  Peter Pinski           : DLPNO-MP2, DLPNO-MP2 Gradient                 
  Shashank Vittal Rao    : ES-AILFT, MagRelax                            
  Christoph Reimann      : Effective Core Potentials                     
  Marius Retegan         : Local ZFS, SOC                                
  Christoph Riplinger    : Optimizer, TS searches, QM/MM, DLPNO-CCSD(T), (RO)-DLPNO pert. Triples 
  Michael Roemelt        : Original ROCIS implementation, recursive CI coupling coefficients
  Masaaki Saitow         : Open-shell DLPNO-CCSD energy and density      
  Barbara Sandhoefer     : DKH picture change effects                    
  Yorick L. A. Schmerwitz: GMF and freeze-and-release deltaSCF, NEB S-IDPP initial path                    
  Kantharuban Sivalingam : CASSCF convergence/infrastructure, NEVPT2, NEVPT3, NEVPT4(SD), FIC-MRCI and CEPA variants
  Bernardo de Souza      : ESD, SOC TD-DFT                               
  Georgi L. Stoychev     : AutoAux, RI-MP2 NMR, DLPNO-MP2 response, X2C  
  Van Anh Tran           : RI-MP2 g-tensors                              
  Willem Van den Heuvel  : Paramagnetic NMR                              
  Zikuan Wang            : NOTCH, Electric field optimization            
  Frank Wennmohs         : Technical directorship and infrastructure     
  Hang Xu                : AUTO-CI-Response properties                   
                                                                         
[FACCTs GmbH]                                                            
  Markus Bursch, Nicolas Foglia, Miquel Garcia-Rates, Ingolf Harden, Hagen Neugebauer, Anastasios Papadopoulos, 
  Christoph Riplinger, Bernardo de Souza, Georgi L. Stoychev                                                    
                                                                 
  APM, various basis sets, CI-OPT, improved COSX, DLPNO-Multilevel,           
  DOCKER, DRACO, updates on ESD, Fragmentator, GOAT, IRC, LR-CPCM, L-BFGS, MBIS, meta-GGA TD-DFT gradient, ML-optimized integration grids, 
  MM, NACMEs, nearIR, NEB, NEB-TS, NL-DFT gradient (VV10), 2- and 3-layer-ONIOM, interface openCOSMO-RS, QMMM,   
  Crystal-QMMM, RESP, rigid body optimization, SF, symmetry and pop. for TD-DFT, various functionals, SOLVATOR                                   
                                                                         
[Other institutions]                                                     
  V. Asgeirsson          : NEB                                           
  Christoph Bannwarth    : sTDA-DFT, sTD-DFT, PBEh-3c, B97-3c, D3        
  Giovanni Bistoni       : ETS/NOCV, ADLD/ADEX, COVALED                  
  Martin Brehm           : Molecular dynamics                            
  Ronald Cardenas        : ETS/NOCV                                      
  Martina Colucci        : COVALED                                       
  Sebastian Ehlert       : rSCAN, r2SCAN, r2SCAN-3c, D4, dhf basis sets  
  Marvin Friede          : D4 for Fr, Ra, Ac-Lr                          
  Lars Goerigk           : TD-DFT with DH, B97 family of functionals     
  Stefan Grimme          : VdW corrections, initial TS optimization, DFT functionals, gCP, sTDA/sTD-DF 
  Waldemar Hujo          : DFT-NL                                        
  H. Jonsson             : NEB                                           
  Holger Kruse           : gCP                                           
  Marcel Mueller         : wB97X-3c, vDZP basis set                      
  Hagen Neugebauer       : wr2SCAN, Native XTB                           
  Gianluca Regni         : ADLD/ADEX                                     
  Tobias Risthaus        : pre 6.0 range-separated hybrid DFT and stability analysis
  Lukas Wittmann         : regularized MP2, r2SCAN double-hybrids, wr2SCAN        
                                                                         
We gratefully acknowledge several colleagues who have allowed us to      
interface, adapt or use parts of their codes:                            
  Ed Valeev, F. Pavosevic, A. Kumar             : LibInt (2-el integral package), F12 methods 
  Garnet Chan, S. Sharma, J. Yang, R. Olivares  : DMRG                   
  Ulf Ekstrom                                   : XCFun DFT Library      
  Mihaly Kallay                                 : mrcc  (arbitrary order and MRCC methods)
  Frank Weinhold                                : gennbo (NPA and NBO analysis)           
  Simon Mueller                                 : openCOSMO-RS                            
  Christopher J. Cramer and Donald G. Truhlar   : smd solvation model                     
  S Lehtola, MJT Oliveira, MAL Marques          : LibXC Library                           
  Liviu Ungur et al                             : ANISO software                          


 Your calculation uses the libint2 library for the computation of 2-el integrals
 For citations please refer to: http://libint.valeyev.net

 Your ORCA version has been built with support for libXC version: 7.0.0
 For citations please refer to: https://libxc.gitlab.io

 This ORCA versions uses:
   CBLAS   interface :  Fast vector & matrix operations
   LAPACKE interface :  Fast linear algebra routines
   SCALAPACK package :  Parallel linear algebra routines
   Shared memory     :  Shared parallel matrices
   BLAS/LAPACK       :  OpenBLAS 0.3.29  USE64BITINT DYNAMIC_ARCH NO_AFFINITY Haswell SINGLE_THREADED
        Core in use  :  Haswell
   Copyright (c) 2011-2014, The OpenBLAS Project


  ***********************************
  * Starting time: Thu Jul  9 12:34:40 2026
  * Host name:     ylva-work-pc
  * Process ID:    126027
  * Working dir.:  /home/ylvao/work/projects/bsse
  ***********************************

Warning: RI is on but no J-basis has been assigned. Assigning Def2/J (nothing to worry about!)
================================================================================

cite the ECPs for Ru [Def2-ECP] as follows:
Ce-Yb(ecp-28): M. Dolg, H. Stoll, H.Preuss, J. Chem. Phys., 1989, 90, 1730-1734.
Y-Cd(ecp-28), Hf-Hg(ecp-46): D. Andrae,U. Haeussermann, M. Dolg, H. Stoll, H. Preuss, Theor. Chim. Acta, 1990, 77, 123-141.
In-Sb(ecp-28), Tl-Bi(ecp-46): B. Metz, H. Stoll, M. Dolg, J. Chem. Phys., 2000, 113, 2563-2569.
Te-Xe(ecp-28), Po-Rn(ecp-46): K. A. Peterson, D. Figgen, E. Goll, H. Stoll, M. Dolg, J. Chem. Phys., 2003, 119, 11113-11123.
Rb(ecp-28), Cs(ecp-46): T. Leininger, A. Nicklass, W. Kuechle, H. Stoll, M. Dolg, A. Bergner, Chem. Phys. Lett., 1996, 255, 274-280.
Sr(ecp-28), Ba(ecp-46): M. Kaupp, P. V. Schleyer, H. Stoll and H. Preuss, J. Chem. Phys., 1991, 94, 1360-1366.
La(ecp-46): M. Dolg, H. Stoll, A. Savin, H. Preuss, Theor. Chim. Acta, 1989, 75, 173-194.
Lu(ecp-28): X. Cao, M. Dolg, J. Chem. Phys., 2001, 115, 7348-7355.

ECP parameters for Ru [Def2-ECP] have been obtained from:
TURBOMOLE (7.0.2)

----- Orbital basis set information -----
Your calculation utilizes the basis: def2-TZVP
   F. Weigend and R. Ahlrichs, Phys. Chem. Chem. Phys. 7, 3297 (2005).

----- AuxJ basis set information -----
Your calculation utilizes the auxiliary basis: def2/J
   H-Rn: F. Weigend, Phys. Chem. Chem. Phys. 8, 1057 (2006).
   Fr-Lr: K. Eichkorn, F. Weigend, O. Treutler, R. Ahlrichs; Theor. Chem. Acc. 97, 119 (1997).

================================================================================
                                        WARNINGS
                       Please study these warnings very carefully!
================================================================================


================================================================================
                                       INPUT FILE
================================================================================
NAME = 15h_def2tzvp.inp
|  1> ! BP86 def2-TZVP VeryTightSCF defgrid3
|  2> 
|  3> *xyz 0 1
|  4> Ru -0.003858 -0.163889 -0.271867
|  5> P -2.297768 -0.007621 -0.144184
|  6> P 2.287169 -0.017737 -0.156253
|  7> C -2.911647 -0.599535 1.515487
|  8> C -4.685018 -2.651731 -3.192189
|  9> C -3.814101 -3.233195 -2.253048
| 10> C -3.131150 -2.427303 -1.330945
| 11> C -3.114479 1.658920 -0.250013
| 12> C -2.362022 2.783003 -0.650011
| 13> C -2.965845 4.049809 -0.733501
| 14> C -4.323605 4.206007 -0.412900
| 15> C -5.079741 3.093236 -0.002279
| 16> C -4.480344 1.827521 0.080460
| 17> C 3.095834 1.619147 -0.504111
| 18> C -2.171085 -0.211966 2.659457
| 19> C 2.525407 2.481327 -1.466488
| 20> C 3.129740 3.712566 -1.768240
| 21> C 4.306822 4.101575 -1.107417
| 22> C 4.880093 3.254350 -0.144042
| 23> C 4.281389 2.019500 0.155693
| 24> C 3.362704 -1.179941 -1.143988
| 25> C 2.942300 -2.524227 -1.283972
| 26> C 3.712726 -3.442373 -2.014309
| 27> C 4.905709 -3.029079 -2.631533
| 28> C 5.326691 -1.695059 -2.509044
| 29> C -2.568324 -0.625371 3.940427
| 30> C 4.565187 -0.776227 -1.766802
| 31> C 2.861239 -0.364185 1.583653
| 32> C 2.371020 0.461983 2.626799
| 33> C 2.717629 0.203094 3.961166
| 34> C 3.546125 -0.888449 4.277679
| 35> C 4.031734 -1.715720 3.252536
| 36> C 3.695943 -1.456310 1.912370
| 37> C -3.707207 -1.433122 4.099439
| 38> C -4.445772 -1.827475 2.971604
| 39> C -4.052788 -1.416625 1.686379
| 40> C -3.323064 -1.022952 -1.319037
| 41> C -4.200392 -0.449774 -2.266112
| 42> C -4.872058 -1.261108 -3.197986
| 43> H -1.298755 2.649696 -0.870975
| 44> H -2.370191 4.915014 -1.041918
| 45> H -4.792336 5.193394 -0.473894
| 46> H -6.135714 3.213453 0.260137
| 47> H -5.065805 0.965746 0.415281
| 48> H -2.437173 -2.881612 -0.614882
| 49> H -3.660763 -4.317245 -2.244132
| 50> H -5.210149 -3.281332 -3.917206
| 51> H -5.544384 -0.800435 -3.929013
| 52> H -4.359007 0.632153 -2.270941
| 53> H -4.621891 -1.742439 0.810763
| 54> H -1.282015 0.416196 2.530447
| 55> H -1.984390 -0.319193 4.814389
| 56> H -4.015448 -1.757570 5.098333
| 57> H -5.331982 -2.459566 3.090250
| 58> H 4.724103 1.366408 0.913741
| 59> H 5.793845 3.555443 0.378349
| 60> H 4.773395 5.064508 -1.338103
| 61> H 2.675337 4.371244 -2.515380
| 62> H 1.596354 2.180557 -1.961758
| 63> H 1.997789 -2.839423 -0.827035
| 64> H 4.900859 0.260216 -1.672911
| 65> H 6.251546 -1.364623 -2.992861
| 66> H 3.374252 -4.479068 -2.110682
| 67> H 5.500286 -3.742732 -3.210487
| 68> H 4.081472 -2.100363 1.116945
| 69> H 1.717455 1.304389 2.376404
| 70> H 2.338921 0.854023 4.755956
| 71> H 3.811124 -1.091676 5.320045
| 72> H 4.679547 -2.565105 3.492624
| 73> H -0.073143 -1.801039 -0.912445
| 74> H -0.035696 -1.231505 -1.614805
| 75> H -0.002430 0.718155 -1.563089
| 76> H 0.035829 1.263937 0.526471
| 77> **                         ****END OF INPUT****
================================================================================

                       ****************************
                       * Single Point Calculation *
                       ****************************

---------------------------------
CARTESIAN COORDINATES (ANGSTROEM)
---------------------------------
  Ru    -0.003858   -0.163889   -0.271867
  P     -2.297768   -0.007621   -0.144184
  P      2.287169   -0.017737   -0.156253
  C     -2.911647   -0.599535    1.515487
  C     -4.685018   -2.651731   -3.192189
  C     -3.814101   -3.233195   -2.253048
  C     -3.131150   -2.427303   -1.330945
  C     -3.114479    1.658920   -0.250013
  C     -2.362022    2.783003   -0.650011
  C     -2.965845    4.049809   -0.733501
  C     -4.323605    4.206007   -0.412900
  C     -5.079741    3.093236   -0.002279
  C     -4.480344    1.827521    0.080460
  C      3.095834    1.619147   -0.504111
  C     -2.171085   -0.211966    2.659457
  C      2.525407    2.481327   -1.466488
  C      3.129740    3.712566   -1.768240
  C      4.306822    4.101575   -1.107417
  C      4.880093    3.254350   -0.144042
  C      4.281389    2.019500    0.155693
  C      3.362704   -1.179941   -1.143988
  C      2.942300   -2.524227   -1.283972
  C      3.712726   -3.442373   -2.014309
  C      4.905709   -3.029079   -2.631533
  C      5.326691   -1.695059   -2.509044
  C     -2.568324   -0.625371    3.940427
  C      4.565187   -0.776227   -1.766802
  C      2.861239   -0.364185    1.583653
  C      2.371020    0.461983    2.626799
  C      2.717629    0.203094    3.961166
  C      3.546125   -0.888449    4.277679
  C      4.031734   -1.715720    3.252536
  C      3.695943   -1.456310    1.912370
  C     -3.707207   -1.433122    4.099439
  C     -4.445772   -1.827475    2.971604
  C     -4.052788   -1.416625    1.686379
  C     -3.323064   -1.022952   -1.319037
  C     -4.200392   -0.449774   -2.266112
  C     -4.872058   -1.261108   -3.197986
  H     -1.298755    2.649696   -0.870975
  H     -2.370191    4.915014   -1.041918
  H     -4.792336    5.193394   -0.473894
  H     -6.135714    3.213453    0.260137
  H     -5.065805    0.965746    0.415281
  H     -2.437173   -2.881612   -0.614882
  H     -3.660763   -4.317245   -2.244132
  H     -5.210149   -3.281332   -3.917206
  H     -5.544384   -0.800435   -3.929013
  H     -4.359007    0.632153   -2.270941
  H     -4.621891   -1.742439    0.810763
  H     -1.282015    0.416196    2.530447
  H     -1.984390   -0.319193    4.814389
  H     -4.015448   -1.757570    5.098333
  H     -5.331982   -2.459566    3.090250
  H      4.724103    1.366408    0.913741
  H      5.793845    3.555443    0.378349
  H      4.773395    5.064508   -1.338103
  H      2.675337    4.371244   -2.515380
  H      1.596354    2.180557   -1.961758
  H      1.997789   -2.839423   -0.827035
  H      4.900859    0.260216   -1.672911
  H      6.251546   -1.364623   -2.992861
  H      3.374252   -4.479068   -2.110682
  H      5.500286   -3.742732   -3.210487
  H      4.081472   -2.100363    1.116945
  H      1.717455    1.304389    2.376404
  H      2.338921    0.854023    4.755956
  H      3.811124   -1.091676    5.320045
  H      4.679547   -2.565105    3.492624
  H     -0.073143   -1.801039   -0.912445
  H     -0.035696   -1.231505   -1.614805
  H     -0.002430    0.718155   -1.563089
  H      0.035829    1.263937    0.526471

----------------------------
CARTESIAN COORDINATES (A.U.)
----------------------------
  NO LB      ZA    FRAG     MASS         X           Y           Z
   0 Ru   16.0000*   0   101.070   -0.007291   -0.309705   -0.513754
   1 P    15.0000    0    30.974   -4.342152   -0.014402   -0.272468
   2 P    15.0000    0    30.974    4.322123   -0.033518   -0.295275
   3 C     6.0000    0    12.011   -5.502215   -1.132957    2.863855
   4 C     6.0000    0    12.011   -8.853401   -5.011045   -6.032363
   5 C     6.0000    0    12.011   -7.207606   -6.109853   -4.257644
   6 C     6.0000    0    12.011   -5.917016   -4.586938   -2.515122
   7 C     6.0000    0    12.011   -5.885512    3.134904   -0.472456
   8 C     6.0000    0    12.011   -4.463575    5.259113   -1.228343
   9 C     6.0000    0    12.011   -5.604635    7.653030   -1.386116
  10 C     6.0000    0    12.011   -8.170429    7.948201   -0.780268
  11 C     6.0000    0    12.011   -9.599319    5.845369   -0.004307
  12 C     6.0000    0    12.011   -8.466623    3.453514    0.152047
  13 C     6.0000    0    12.011    5.850278    3.059744   -0.952632
  14 C     6.0000    0    12.011   -4.102756   -0.400558    5.025645
  15 C     6.0000    0    12.011    4.772328    4.689028   -2.771261
  16 C     6.0000    0    12.011    5.914351    7.015733   -3.341489
  17 C     6.0000    0    12.011    8.138714    7.750853   -2.092715
  18 C     6.0000    0    12.011    9.222039    6.149830   -0.272200
  19 C     6.0000    0    12.011    8.090653    3.816302    0.294217
  20 C     6.0000    0    12.011    6.354590   -2.229765   -2.161824
  21 C     6.0000    0    12.011    5.560141   -4.770098   -2.426355
  22 C     6.0000    0    12.011    7.016035   -6.505142   -3.806492
  23 C     6.0000    0    12.011    9.270447   -5.724130   -4.972877
  24 C     6.0000    0    12.011   10.065987   -3.203197   -4.741406
  25 C     6.0000    0    12.011   -4.853429   -1.181780    7.446328
  26 C     6.0000    0    12.011    8.626953   -1.466856   -3.338772
  27 C     6.0000    0    12.011    5.406958   -0.688210    2.992670
  28 C     6.0000    0    12.011    4.480578    0.873021    4.963931
  29 C     6.0000    0    12.011    5.135575    0.383792    7.485519
  30 C     6.0000    0    12.011    6.701205   -1.678925    8.083642
  31 C     6.0000    0    12.011    7.618873   -3.242241    6.146402
  32 C     6.0000    0    12.011    6.984320   -2.752027    3.613856
  33 C     6.0000    0    12.011   -7.005606   -2.708208    7.746817
  34 C     6.0000    0    12.011   -8.401292   -3.453427    5.615518
  35 C     6.0000    0    12.011   -7.658659   -2.677033    3.186794
  36 C     6.0000    0    12.011   -6.279681   -1.933099   -2.492619
  37 C     6.0000    0    12.011   -7.937591   -0.849950   -4.282331
  38 C     6.0000    0    12.011   -9.206855   -2.383149   -6.043318
  39 H     1.0000    0     1.008   -2.454291    5.007200   -1.645904
  40 H     1.0000    0     1.008   -4.479012    9.288030   -1.968940
  41 H     1.0000    0     1.008   -9.056203    9.814092   -0.895530
  42 H     1.0000    0     1.008  -11.594819    6.072546    0.491588
  43 H     1.0000    0     1.008   -9.572984    1.824995    0.784767
  44 H     1.0000    0     1.008   -4.605590   -5.445458   -1.161959
  45 H     1.0000    0     1.008   -6.917840   -8.158411   -4.240795
  46 H     1.0000    0     1.008   -9.845755   -6.200819   -7.402447
  47 H     1.0000    0     1.008  -10.477367   -1.512603   -7.424759
  48 H     1.0000    0     1.008   -8.237329    1.194596   -4.291457
  49 H     1.0000    0     1.008   -8.734108   -3.292733    1.532120
  50 H     1.0000    0     1.008   -2.422657    0.786496    4.781852
  51 H     1.0000    0     1.008   -3.749954   -0.603187    9.097877
  52 H     1.0000    0     1.008   -7.588097   -3.321326    9.634453
  53 H     1.0000    0     1.008  -10.075986   -4.647906    5.839726
  54 H     1.0000    0     1.008    8.927261    2.582137    1.726720
  55 H     1.0000    0     1.008   10.948780    6.718814    0.714976
  56 H     1.0000    0     1.008    9.020409    9.570533   -2.528648
  57 H     1.0000    0     1.008    5.055654    8.260454   -4.753379
  58 H     1.0000    0     1.008    3.016672    4.120656   -3.707185
  59 H     1.0000    0     1.008    3.775274   -5.365732   -1.562870
  60 H     1.0000    0     1.008    9.261281    0.491737   -3.161344
  61 H     1.0000    0     1.008   11.813710   -2.578764   -5.655688
  62 H     1.0000    0     1.008    6.376412   -8.464212   -3.988611
  63 H     1.0000    0     1.008   10.394034   -7.072738   -6.066941
  64 H     1.0000    0     1.008    7.712864   -3.969111    2.110720
  65 H     1.0000    0     1.008    3.245520    2.464938    4.490753
  66 H     1.0000    0     1.008    4.419920    1.613870    8.987454
  67 H     1.0000    0     1.008    7.201981   -2.062969   10.053428
  68 H     1.0000    0     1.008    8.843062   -4.847346    6.600103
  69 H     1.0000    0     1.008   -0.138220   -3.403470   -1.724271
  70 H     1.0000    0     1.008   -0.067456   -2.327207   -3.051539
  71 H     1.0000    0     1.008   -0.004592    1.357116   -2.953810
  72 H     1.0000    0     1.008    0.067707    2.388495    0.994886
* core charge reduced due to ECP

--------------------------------
INTERNAL COORDINATES (ANGSTROEM)
--------------------------------
 Ru     0   0   0     0.000000000000     0.00000000     0.00000000
 P      1   0   0     2.302769142666     0.00000000     0.00000000
 P      1   2   0     2.298593421819   170.32266066     0.00000000
 C      2   1   3     1.865936075614   110.82520720   287.45078086
 C      2   1   3     4.688348828172   115.65233116   170.20377413
 C      5   2   1     1.406620994464    58.92282170    60.14447602
 C      6   5   2     1.402197534827   120.20149621     1.37782858
 C      2   1   3     1.858917840961   119.69208873    44.29035749
 C      8   2   1     1.410585881023   119.74902353    11.59623616
 C      9   8   2     1.405834356197   120.38491940   180.05586508
 C     10   9   8     1.403814458540   120.14046221     0.28057060
 C     11  10   9     1.406630923369   119.90488293     0.24861884
 C     12  11  10     1.402910177793   120.08422791   359.67538394
 C      3   1   2     1.858583734957   118.70173616   307.31506304
 C      4   2   1     1.416795386252   117.35079399    41.61180746
 C     14   3   1     1.412413114092   119.30257327   325.85419906
 C     16  14   3     1.404358258962   120.51680914   181.24929254
 C     17  16  14     1.404826350171   120.14995026   359.63753352
 C     18  17  16     1.405176583455   119.82636451     0.09046500
 C     19  18  17     1.404685755727   120.16160922     0.19739150
 C      3   1   2     1.866310291475   120.54251695   181.43963248
 C     21   3   1     1.415429225807   118.20339899   322.42689438
 C     22  21   3     1.403545664509   120.64439034   180.08849546
 C     23  22  21     1.405341892530   120.14069449   359.14393745
 C     24  23  22     1.404221763058   119.70734579     0.29925664
 C     15   4   2     1.403419630063   120.56088512   180.34697434
 C     25  24  23     1.405369621418   120.31402080     0.37274022
 C      3   1   2     1.864632797749   109.99749314    63.87593661
 C     28   3   1     1.418105006514   118.14571869   301.40983335
 C     29  28   3     1.402746093878   120.45064628   176.77553356
 C     30  29  28     1.406432444888   120.19010063   359.39380368
 C     31  30  29     1.403962812460   119.78467380     0.32181966
 C     32  31  30     1.405736124362   120.31546661     0.12921901
 C     26  15   4     1.405276122986   120.13194434     0.14068703
 C     34  26  15     1.404636727079   119.77861887     0.10675201
 C     35  34  26     1.405360255373   120.34403636   359.89498893
 C      7   6   5     1.417453531888   120.59740754     0.94131641
 C     37   7   6     1.412511414075   118.71788372   359.10157207
 C      5   2   1     1.403157116982    60.76607340   238.48078465
 H      9   8   2     1.094135530377   118.59154584   358.73744835
 H     10   9   8     1.094762269002   119.68239487   179.79124833
 H     11  10   9     1.094697266904   120.11723028   179.73646706
 H     12  11  10     1.094711496639   120.10795216   179.26126550
 H     13  12  11     1.094315235747   119.99688609   179.03101013
 H      7   6   5     1.095786002821   119.99388255   181.30807524
 H      6   5   2     1.094877362904   120.09521428   181.84592555
 H      5   2   1     1.094444898865   178.06340011   359.81994773
 H     39   5   2     1.094825254520   120.10799086   178.05449589
 H     38  37   7     1.093502661540   119.63978470   180.04548219
 H     36  35  34     1.093954462791   119.96362011   178.88102045
 H     15   4   2     1.096210081711   119.05584289     0.34228873
 H     26  15   4     1.094775530181   119.68905009   179.87834016
 H     34  26  15     1.094563037025   120.12387080   179.84475804
 H     35  34  26     1.094981310204   120.04096220   179.79804712
 H     20  19  18     1.094148809150   120.00696977   180.63737678
 H     19  18  17     1.094756625481   120.12175348   180.38170428
 H     18  17  16     1.094598719812   120.10680556   180.42897752
 H     17  16  14     1.094786268499   119.70327799   180.09302000
 H     16  14   3     1.094940383130   118.89472496     2.17778557
 H     22  21   3     1.095555096518   119.21317936     0.98349851
 H     27  25  24     1.093483106277   119.91467814   179.79570098
 H     25  24  23     1.094816701832   120.09517562   180.40967323
 H     23  22  21     1.094800861723   119.70556718   179.84866346
 H     24  23  22     1.094536498914   120.11262626   180.69693824
 H     33  32  31     1.093680852569   120.03259144   179.64976463
 H     29  28   3     1.095213556383   119.09237138   356.82601807
 H     30  29  28     1.094906140455   119.69127582   179.48519839
 H     31  30  29     1.094555874081   120.06855311   180.31589689
 H     32  31  30     1.094878444823   120.10966409   179.81397968
 H      1   2   8     1.759375090141    92.52789278   206.84120734
 H     70   1   2     0.905030841776    72.26289240    93.31241454
 H      1   2   8     1.563732045590    90.48224292   309.83630704
 H      1   2   8     1.636339117203    86.43934276    34.66979334

---------------------------
INTERNAL COORDINATES (A.U.)
---------------------------
 Ru     0   0   0     0.000000000000     0.00000000     0.00000000
 P      1   0   0     4.351603029283     0.00000000     0.00000000
 P      1   2   0     4.343712060471   170.32266066     0.00000000
 C      2   1   3     3.526108166314   110.82520720   287.45078086
 C      2   1   3     8.859695305536   115.65233116   170.20377413
 C      5   2   1     2.658128453760    58.92282170    60.14447602
 C      6   5   2     2.649769326482   120.20149621     1.37782858
 C      2   1   3     3.512845624876   119.69208873    44.29035749
 C      8   2   1     2.665621003510   119.74902353    11.59623616
 C      9   8   2     2.656641922871   120.38491940   180.05586508
 C     10   9   8     2.652824869479   120.14046221     0.28057060
 C     11  10   9     2.658147216672   119.90488293     0.24861884
 C     12  11  10     2.651116026519   120.08422791   359.67538394
 C      3   1   2     3.512214256028   118.70173616   307.31506304
 C      4   2   1     2.677355267819   117.35079399    41.61180746
 C     14   3   1     2.669073973592   119.30257327   325.85419906
 C     16  14   3     2.653852503348   120.51680914   181.24929254
 C     17  16  14     2.654737067539   120.14995026   359.63753352
 C     18  17  16     2.655398912530   119.82636451     0.09046500
 C     19  18  17     2.654471382543   120.16160922     0.19739150
 C      3   1   2     3.526815331807   120.54251695   181.43963248
 C     21   3   1     2.674773598723   118.20339899   322.42689438
 C     22  21   3     2.652316922374   120.64439034   180.08849546
 C     23  22  21     2.655711301409   120.14069449   359.14393745
 C     24  23  22     2.653594563471   119.70734579     0.29925664
 C     15   4   2     2.652078751788   120.56088512   180.34697434
 C     25  24  23     2.655763701412   120.31402080     0.37274022
 C      3   1   2     3.523645328072   109.99749314    63.87593661
 C     28   3   1     2.679830091455   118.14571869   301.40983335
 C     29  28   3     2.650805952858   120.45064628   176.77553356
 C     30  29  28     2.657772146700   120.19010063   359.39380368
 C     31  30  29     2.653105217760   119.78467380     0.32181966
 C     32  31  30     2.656456291605   120.31546661     0.12921901
 C     26  15   4     2.655587014982   120.13194434     0.14068703
 C     34  26  15     2.654378731827   119.77861887     0.10675201
 C     35  34  26     2.655746002152   120.34403636   359.89498893
 C      7   6   5     2.678598982827   120.59740754     0.94131641
 C     37   7   6     2.669259733640   118.71788372   359.10157207
 C      5   2   1     2.651582673959    60.76607340   238.48078465
 H      9   8   2     2.067616505806   118.59154584   358.73744835
 H     10   9   8     2.068800870164   119.68239487   179.79124833
 H     11  10   9     2.068678034000   120.11723028   179.73646706
 H     12  11  10     2.068704924303   120.10795216   179.26126550
 H     13  12  11     2.067956099738   119.99688609   179.03101013
 H      7   6   5     2.070735446716   119.99388255   181.30807524
 H      6   5   2     2.069018366119   120.09521428   181.84592555
 H      5   2   1     2.068201127521   178.06340011   359.81994773
 H     39   5   2     2.068919895543   120.10799086   178.05449589
 H     38  37   7     2.066420557025   119.63978470   180.04548219
 H     36  35  34     2.067274337657   119.96362011   178.88102045
 H     15   4   2     2.071536839677   119.05584289     0.34228873
 H     26  15   4     2.068825930161   119.68905009   179.87834016
 H     34  26  15     2.068424376290   120.12387080   179.84475804
 H     35  34  26     2.069214798049   120.04096220   179.79804712
 H     20  19  18     2.067641599049   120.00696977   180.63737678
 H     19  18  17     2.068790205454   120.12175348   180.38170428
 H     18  17  16     2.068491806985   120.10680556   180.42897752
 H     17  16  14     2.068846222640   119.70327799   180.09302000
 H     16  14   3     2.069137457087   118.89472496     2.17778557
 H     22  21   3     2.070299097040   119.21317936     0.98349851
 H     27  25  24     2.066383602934   119.91467814   179.79570098
 H     25  24  23     2.068903733305   120.09517562   180.40967323
 H     23  22  21     2.068873799838   119.70556718   179.84866346
 H     24  23  22     2.068374226528   120.11262626   180.69693824
 H     33  32  31     2.066757289268   120.03259144   179.64976463
 H     29  28   3     2.069653679723   119.09237138   356.82601807
 H     30  29  28     2.069072747808   119.69127582   179.48519839
 H     31  30  29     2.068410840289   120.06855311   180.31589689
 H     32  31  30     2.069020410649   120.10966409   179.81397968
 H      1   2   8     3.324737087210    92.52789278   206.84120734
 H     70   1   2     1.710260433708    72.26289240    93.31241454
 H      1   2   8     2.955025313001    90.48224292   309.83630704
 H      1   2   8     3.092232793736    86.43934276    34.66979334

---------------------
BASIS SET INFORMATION
---------------------
There are 4 groups of distinct atoms

 Group   1 Type Ru  : 7s7p5d1f contracted to 6s4p3d1f pattern {211111/4111/311/1}
 Group   2 Type P   : 14s9p3d1f contracted to 5s5p2d1f pattern {73211/51111/21/1}
 Group   3 Type C   : 11s6p2d1f contracted to 5s3p2d1f pattern {62111/411/11/1}
 Group   4 Type H   : 5s1p contracted to 3s1p pattern {311/1}

Atom   0Ru   basis set group =>   1
Atom   1P    basis set group =>   2
Atom   2P    basis set group =>   2
Atom   3C    basis set group =>   3
Atom   4C    basis set group =>   3
Atom   5C    basis set group =>   3
Atom   6C    basis set group =>   3
Atom   7C    basis set group =>   3
Atom   8C    basis set group =>   3
Atom   9C    basis set group =>   3
Atom  10C    basis set group =>   3
Atom  11C    basis set group =>   3
Atom  12C    basis set group =>   3
Atom  13C    basis set group =>   3
Atom  14C    basis set group =>   3
Atom  15C    basis set group =>   3
Atom  16C    basis set group =>   3
Atom  17C    basis set group =>   3
Atom  18C    basis set group =>   3
Atom  19C    basis set group =>   3
Atom  20C    basis set group =>   3
Atom  21C    basis set group =>   3
Atom  22C    basis set group =>   3
Atom  23C    basis set group =>   3
Atom  24C    basis set group =>   3
Atom  25C    basis set group =>   3
Atom  26C    basis set group =>   3
Atom  27C    basis set group =>   3
Atom  28C    basis set group =>   3
Atom  29C    basis set group =>   3
Atom  30C    basis set group =>   3
Atom  31C    basis set group =>   3
Atom  32C    basis set group =>   3
Atom  33C    basis set group =>   3
Atom  34C    basis set group =>   3
Atom  35C    basis set group =>   3
Atom  36C    basis set group =>   3
Atom  37C    basis set group =>   3
Atom  38C    basis set group =>   3
Atom  39H    basis set group =>   4
Atom  40H    basis set group =>   4
Atom  41H    basis set group =>   4
Atom  42H    basis set group =>   4
Atom  43H    basis set group =>   4
Atom  44H    basis set group =>   4
Atom  45H    basis set group =>   4
Atom  46H    basis set group =>   4
Atom  47H    basis set group =>   4
Atom  48H    basis set group =>   4
Atom  49H    basis set group =>   4
Atom  50H    basis set group =>   4
Atom  51H    basis set group =>   4
Atom  52H    basis set group =>   4
Atom  53H    basis set group =>   4
Atom  54H    basis set group =>   4
Atom  55H    basis set group =>   4
Atom  56H    basis set group =>   4
Atom  57H    basis set group =>   4
Atom  58H    basis set group =>   4
Atom  59H    basis set group =>   4
Atom  60H    basis set group =>   4
Atom  61H    basis set group =>   4
Atom  62H    basis set group =>   4
Atom  63H    basis set group =>   4
Atom  64H    basis set group =>   4
Atom  65H    basis set group =>   4
Atom  66H    basis set group =>   4
Atom  67H    basis set group =>   4
Atom  68H    basis set group =>   4
Atom  69H    basis set group =>   4
Atom  70H    basis set group =>   4
Atom  71H    basis set group =>   4
Atom  72H    basis set group =>   4
---------------------------------
AUXILIARY/J BASIS SET INFORMATION
---------------------------------
There are 4 groups of distinct atoms

 Group   1 Type Ru  : 11s5p5d3f3g contracted to 8s5p5d2f3g pattern {41111111/11111/11111/21/111}
 Group   2 Type P   : 14s5p5d2f1g contracted to 8s4p3d1f1g pattern {71111111/2111/311/2/1}
 Group   3 Type C   : 12s5p4d2f1g contracted to 6s4p3d1f1g pattern {711111/2111/211/2/1}
 Group   4 Type H   : 5s2p1d contracted to 3s1p1d pattern {311/2/1}

Atom   0Ru   basis set group =>   1
Atom   1P    basis set group =>   2
Atom   2P    basis set group =>   2
Atom   3C    basis set group =>   3
Atom   4C    basis set group =>   3
Atom   5C    basis set group =>   3
Atom   6C    basis set group =>   3
Atom   7C    basis set group =>   3
Atom   8C    basis set group =>   3
Atom   9C    basis set group =>   3
Atom  10C    basis set group =>   3
Atom  11C    basis set group =>   3
Atom  12C    basis set group =>   3
Atom  13C    basis set group =>   3
Atom  14C    basis set group =>   3
Atom  15C    basis set group =>   3
Atom  16C    basis set group =>   3
Atom  17C    basis set group =>   3
Atom  18C    basis set group =>   3
Atom  19C    basis set group =>   3
Atom  20C    basis set group =>   3
Atom  21C    basis set group =>   3
Atom  22C    basis set group =>   3
Atom  23C    basis set group =>   3
Atom  24C    basis set group =>   3
Atom  25C    basis set group =>   3
Atom  26C    basis set group =>   3
Atom  27C    basis set group =>   3
Atom  28C    basis set group =>   3
Atom  29C    basis set group =>   3
Atom  30C    basis set group =>   3
Atom  31C    basis set group =>   3
Atom  32C    basis set group =>   3
Atom  33C    basis set group =>   3
Atom  34C    basis set group =>   3
Atom  35C    basis set group =>   3
Atom  36C    basis set group =>   3
Atom  37C    basis set group =>   3
Atom  38C    basis set group =>   3
Atom  39H    basis set group =>   4
Atom  40H    basis set group =>   4
Atom  41H    basis set group =>   4
Atom  42H    basis set group =>   4
Atom  43H    basis set group =>   4
Atom  44H    basis set group =>   4
Atom  45H    basis set group =>   4
Atom  46H    basis set group =>   4
Atom  47H    basis set group =>   4
Atom  48H    basis set group =>   4
Atom  49H    basis set group =>   4
Atom  50H    basis set group =>   4
Atom  51H    basis set group =>   4
Atom  52H    basis set group =>   4
Atom  53H    basis set group =>   4
Atom  54H    basis set group =>   4
Atom  55H    basis set group =>   4
Atom  56H    basis set group =>   4
Atom  57H    basis set group =>   4
Atom  58H    basis set group =>   4
Atom  59H    basis set group =>   4
Atom  60H    basis set group =>   4
Atom  61H    basis set group =>   4
Atom  62H    basis set group =>   4
Atom  63H    basis set group =>   4
Atom  64H    basis set group =>   4
Atom  65H    basis set group =>   4
Atom  66H    basis set group =>   4
Atom  67H    basis set group =>   4
Atom  68H    basis set group =>   4
Atom  69H    basis set group =>   4
Atom  70H    basis set group =>   4
Atom  71H    basis set group =>   4
Atom  72H    basis set group =>   4
-------------------------
ECP PARAMETER INFORMATION
-------------------------

 Group 1, Type Ru ECP Def2-ECP (replacing 28 core electrons, lmax=3)

Atom   0Ru   ECP group =>   1

------------------------------------------------------------------------------
                             ORCA STARTUP CALCULATIONS
                           -- RI-GTO INTEGRALS CHOSEN --
------------------------------------------------------------------------------
------------------------------------------------------------------------------
                   ___                                                        
                  /   \      - P O W E R E D   B Y -                         
                 /     \                                                     
                 |  |  |   _    _      __       _____    __    __             
                 |  |  |  | |  | |    /  \     |  _  \  |  |  /  |          
                  \  \/   | |  | |   /    \    | | | |  |  | /  /          
                 / \  \   | |__| |  /  /\  \   | |_| |  |  |/  /          
                |  |  |   |  __  | /  /__\  \  |    /   |      \           
                |  |  |   | |  | | |   __   |  |    \   |  |\   \          
                \     /   | |  | | |  |  |  |  | |\  \  |  | \   \       
                 \___/    |_|  |_| |__|  |__|  |_| \__\ |__|  \__/        
                                                                              
                      - O R C A' S   B I G   F R I E N D -                    
                                      &                                       
                       - I N T E G R A L  F E E D E R -                       
                                                                              
 v1 FN, 2020, v2 2021, v3 2022-2024                                           
------------------------------------------------------------------------------


----------------------
SHARK INTEGRAL PACKAGE
----------------------

Number of atoms                             ...     73
Number of basis functions                   ...   1434
Number of shells                            ...    572
Maximum angular momentum                    ...      3
Integral batch strategy                     ... SHARK/LIBINT Hybrid
RI-J (if used) integral strategy            ... SPLIT-RIJ (Revised 2003 algorithm where possible)
Printlevel                                  ...      1
Contraction scheme used                     ... SEGMENTED contraction
Prescreening option                         ... SCHWARTZ
   Thresh                                   ... 1.000e-12
   Tcut                                     ... 1.000e-14
   Tpresel                                  ... 1.000e-14 
Coulomb Range Separation                    ... NOT USED
Exchange Range Separation                   ... NOT USED
Multipole approximations                    ... NOT USED
Finite Nucleus Model                        ... NOT USED
CABS basis                                  ... NOT available
Auxiliary Coulomb fitting basis             ... AVAILABLE
   # of basis functions in Aux-J            ...   2329
   # of shells in Aux-J                     ...    767
   Maximum angular momentum in Aux-J        ...      4
Auxiliary J/K fitting basis                 ... NOT available
Auxiliary Correlation fitting basis         ... NOT available
Auxiliary 'external' fitting basis          ... NOT available

Checking pre-screening integrals            ... done (  0.0 sec) Dimension = 572
   => SHARK Basis and OBASIS are compatible. Storing Pre-screening
Shell pair information
Shell pair cut-off parameter TPreSel        ...   1.0e-14
Total number of shell pairs                 ...    163878
Shell pairs after pre-screening             ...     98756
Total number of primitive shell pairs       ...    499477
Primitive shell pairs kept                  ...    189309
          la=0 lb=0:  26241 shell pairs
          la=1 lb=0:  29772 shell pairs
          la=1 lb=1:   8469 shell pairs
          la=2 lb=0:  13470 shell pairs
          la=2 lb=1:   7725 shell pairs
          la=2 lb=2:   1731 shell pairs
          la=3 lb=0:   6026 shell pairs
          la=3 lb=1:   3491 shell pairs
          la=3 lb=2:   1492 shell pairs
          la=3 lb=3:    339 shell pairs

Checking whether 4 symmetric matrices of dimension 1434 fit in memory
:Max Core in MB      =   4096.00
 MB in use           =    119.74
 MB left             =   3976.26
 MB needed           =     31.40
 Data fit in memory  = YES
Calculating RI/J V-Matrix + Cholesky decomp.... done (  0.6 sec)
Calculating Nuclear repulsion               ... done (  0.0 sec) ENN=   4774.741462817796 Eh

Diagonalization of the overlap matrix:
Smallest eigenvalue                        ... 7.028e-06
Time for diagonalization                   ...    1.608 sec
Threshold for overlap eigenvalues          ... 1.000e-07
Number of eigenvalues below threshold      ... 0
Time for construction of square roots      ...    0.823 sec
Total time needed                          ...    2.442 sec

-------------------
DFT GRID GENERATION
-------------------

General Integration Accuracy     IntAcc      ... 4.959
Radial Grid Type                 RadialGrid  ... OptM3 with GC (2021)
Angular Grid (max. ang.)         AngularGrid ... 6 (Lebedev-590)
Angular grid pruning method      GridPruning ... 4 (adaptive)
Weight generation scheme         WeightScheme... mBecke (2022)
Basis function cutoff            BFCut       ... 1.0000e-12
Integration weight cutoff        WCut        ... 1.0000e-14
Partially contracted basis set               ... off
Rotationally invariant grid construction     ... off
Angular grids for H and He will be reduced by one unit

Total number of grid points                  ...   843969
Total number of batches                      ...    13224
Average number of points per batch           ...       63
Average number of grid points per atom       ...    11561
Grids setup in  29.7 sec
Initializing property integral containers    ... done (  0.0 sec)

SHARK setup successfully completed in  39.5 seconds

Maximum memory used throughout the entire STARTUP-calculation: 485.9 MB
-------------------------------------------------------------------------------
                                 ORCA GUESS
                   Start orbitals & Density for SCF / CASSCF
-------------------------------------------------------------------------------

------------
SCF SETTINGS
------------
Hamiltonian:
 Density Functional     Method          .... DFT(GTOs)
 Exchange Functional    Exchange        .... B88
   X-Alpha parameter    XAlpha          ....  0.666667
   Becke's b parameter  XBeta           ....  0.004200
 Correlation Functional Correlation     .... P86
 LDA part of GGA corr.  LDAOpt          .... PW91-LDA
 Gradients option       PostSCFGGA      .... off
   NL short-range parameter             ....  4.400000
 RI-approximation to the Coulomb term is turned on
   Number of AuxJ basis functions       .... 2329


General Settings:
 Integral files         IntName         .... 15h_def2tzvp
 Hartree-Fock type      HFTyp           .... RHF
 Total Charge           Charge          ....    0
 Multiplicity           Mult            ....    1
 Number of Electrons    NEL             ....  296
 Basis Dimension        Dim             .... 1434
 Nuclear Repulsion      ENuc            ....   4774.7414628178 Eh

Convergence Acceleration:
 AO-DIIS                CNVDIIS         .... on
   Start iteration      DIISMaxIt       ....    12
   Startup error        DIISStart       ....  0.200000
   # of expansion vecs  DIISMaxEq       ....     5
   Bias factor          DIISBfac        ....   1.050
   Max. coefficient     DIISMaxC        ....  10.000
 MO-DIIS                CNVKDIIS        .... off
 Trust-Rad. Augm. Hess. CNVTRAH         .... auto
   Auto Start mean grad. ratio tolernc. ....  1.125000
   Auto Start start iteration           ....    50
   Auto Start num. interpolation iter.  ....    10
   Max. Number of Micro iterations      ....    24
   Max. Number of Macro iterations      .... Maxiter - #DIIS iter
   Number of Davidson start vectors     ....     2
   Converg. threshold    (grad. norm)   ....   2.000e-06
   Grad. Scal. Fac. for Micro threshold ....   0.100
   Minimum threshold for Micro iter.    ....   1.000e-02
   NR start threshold (gradient norm)   ....   1.000e-04
   Initial trust radius                 ....   0.400
   Minimum AH scaling param. (alpha)    ....   1.000
   Maximum AH scaling param. (alpha)    .... 1000.000
   Quad. conv. algorithm                .... NR
   White noise on init. David. guess    .... on
   Maximum white noise                  ....   0.010
   Pseudo random numbers                .... off
   Inactive MOs                         .... canonical
   Orbital update algorithm             .... Taylor
   Preconditioner                       .... Diag
   Full preconditioner red. dimension   ....   250
 SOSCF                 CNVSOSCF           .... on
   Start iteration     SOSCFMaxIt         ....   150
   Startup grad/error  SOSCFStart         ....  0.003300
   Hessian update      SOSCFHessUp        .... L-BFGS
   Autom. constraints  SOSCFAutoConstrain .... off
 Level Shifting         CNVShift        .... on
   Level shift para.    LevelShift      ....    0.2500
   Turn off err/grad.   ShiftErr        ....    0.0010
 Zerner damping         CNVZerner       .... off
 Static damping         CNVDamp         .... on
   Fraction old density DampFac         ....    0.7000
   Max. Damping (<1)    DampMax         ....    0.9800
   Min. Damping (>=0)   DampMin         ....    0.0000
   Turn off err/grad.   DampErr         ....    0.1000

SCF Procedure:
 Maximum # iterations   MaxIter         ....   125
 SCF integral mode      SCFMode         .... Direct
   Integral package                     .... SHARK and LIBINT hybrid scheme
 Reset frequency        DirectResetFreq ....    20
 Integral Threshold     Thresh          ....  1.000e-12 Eh
 Primitive CutOff       TCut            ....  1.000e-14 Eh

Convergence Tolerance:
 Convergence Check Mode ConvCheckMode   .... Total+1el-Energy
 Convergence forced     ConvForced      .... 0
 Energy Change          TolE            ....  1.000e-09 Eh
 1-El. energy change                    ....  1.000e-06 Eh
 Orbital Gradient       TolG            ....  2.000e-06
 Orbital Rotation angle TolX            ....  2.000e-06
 DIIS Error             TolErr          ....  1.000e-08

------------------------------
INITIAL GUESS: MODEL POTENTIAL
------------------------------
Loading Hartree-Fock densities                     ... done
Atomic calculation to generate a density for atom 0 (Ru with ECP)
  Multiplicity assumed   :    5
  Atomic configuration   : 1s2 2s2 2p6 3s2 3p6 4s2 3d10 4p6 5s2 4d6 
  Number of open shells  : 1
  Command: /home/ylvao/work/software/orca_6_1_1_linux_x86-64_shared_openmpi418/orca 15h_def2tzvp_atom44.inp "" > 15h_def2tzvp_atom44.out
Returned from the atomic calculation with res=0
Calculating cut-offs                               ... done
Initializing the effective Hamiltonian             ... done
Setting up the integral package (SHARK)            ... done
Starting the Coulomb interaction                   ... done (  17.4 sec)
Making the grid                                    ... done (   3.1 sec)
Mapping shells                                     ... done
Starting the XC term evaluation                    ... done (   9.8 sec)
  promolecular density results
     # of electrons  =    323.969885303
     EX              =   -369.637446269
     EC              =    -12.967991666
     EX+EC           =   -382.605437935
Transforming the Hamiltonian                       ... done (   1.0 sec)
Diagonalizing the Hamiltonian                      ... done (   1.4 sec)
Back transforming the eigenvectors                 ... done (   0.3 sec)
Now organizing SCF variables                       ... done
                      ------------------
                      INITIAL GUESS DONE (  34.5 sec)
                      ------------------
             **** ENERGY FILE WAS UPDATED (15h_def2tzvp.en.tmp) ****
Finished Guess after  35.4 sec
Maximum memory used throughout the entire GUESS-calculation: 299.6 MB

-------------------------------------------------------------------------------------------
                                      ORCA LEAN-SCF
                              memory conserving SCF solver
-------------------------------------------------------------------------------------------

----------------------------------------D-I-I-S--------------------------------------------
Iteration    Energy (Eh)           Delta-E    RMSDP     MaxDP     DIISErr   Damp  Time(sec)
-------------------------------------------------------------------------------------------
               ***  Starting incremental Fock matrix formation  ***
    1    -2169.9165786972071146     0.00e+00  7.58e-04  6.12e-02  4.58e-01  0.700 135.1
Warning: op=0 Small HOMO/LUMO gap (   0.083) - skipping pre-diagonalization
         Will do a full diagonalization
    2    -2170.2706619597520330    -3.54e-01  5.88e-04  3.16e-02  3.13e-01  0.700 114.8
    3    -2170.4024842263070241    -1.32e-01  3.13e-04  1.82e-02  2.17e-01  0.700 111.0
                               ***Turning on AO-DIIS***
    4    -2170.4748874473334581    -7.24e-02  1.73e-04  1.45e-02  1.51e-01  0.700 118.5
    5    -2170.5285744795346545    -5.37e-02  1.13e-04  1.36e-02  1.05e-01  0.700 106.5
    6    -2170.5664143020694610    -3.78e-02  8.25e-05  1.08e-02  7.44e-02  0.700 100.8
    7    -2170.5927925557070921    -2.64e-02  2.01e-04  2.64e-02  5.17e-02  0.000  93.6
                              *** Initializing SOSCF ***
---------------------------------------S-O-S-C-F--------------------------------------
Iteration    Energy (Eh)           Delta-E    RMSDP     MaxDP     MaxGrad    Time(sec)
--------------------------------------------------------------------------------------
    8    -2170.6539768065922544    -6.12e-02  2.01e-05  1.16e-03  7.79e-04   143.3
               *** Restarting incremental Fock matrix formation ***
    9    -2170.6539974054030608    -2.06e-05  1.34e-05  1.26e-03  1.92e-04   122.1
   10    -2170.6539818215269406     1.56e-05  1.26e-05  1.30e-03  6.46e-04   111.9
   11    -2170.6539977488082513    -1.59e-05  1.35e-05  1.61e-03  3.14e-04   124.1
   12    -2170.6539775404580723     2.02e-05  9.33e-06  1.14e-03  4.08e-04    89.0
   13    -2170.6540013326339249    -2.38e-05  5.09e-06  4.57e-04  8.88e-05    91.2
   14    -2170.6539963206632819     5.01e-06  3.64e-06  3.20e-04  2.09e-04    98.9
   15    -2170.6540022399085501    -5.92e-06  1.24e-06  1.61e-04  1.92e-05    91.5
   16    -2170.6540019964959356     2.43e-07  8.70e-07  1.08e-04  4.67e-05    93.9
   17    -2170.6540022811132076    -2.85e-07  3.82e-07  3.59e-05  4.86e-06    81.7
   18    -2170.6540022672224950     1.39e-08  2.43e-07  2.01e-05  1.20e-05    85.5
   19    -2170.6540022846475040    -1.74e-08  1.94e-07  2.01e-05  2.10e-06   102.2
   20    -2170.6540022802601015     4.39e-09  1.18e-07  1.27e-05  6.44e-06    93.3
   21    -2170.6540022853332630    -5.07e-09  1.50e-07  1.77e-05  6.39e-07    65.1
   22    -2170.6540022865701758    -1.24e-09  6.81e-08  6.92e-06  1.30e-06    63.9
   23    -2170.6540022850658715     1.50e-09  1.64e-07  2.92e-05  1.99e-07    50.7
                  *** Gradient check signals convergence ***

               *****************************************************
               *                     SUCCESS                       *
               *           SCF CONVERGED AFTER  23 CYCLES          *
               *****************************************************

             **** ENERGY FILE WAS UPDATED (15h_def2tzvp.en.tmp) ****

----------------
TOTAL SCF ENERGY
----------------

Total Energy       :      -2170.65400228254384 Eh          -59066.49828 eV

Components:
Nuclear Repulsion  :       4774.74146281779576 Eh          129927.32058 eV
Electronic Energy  :      -6945.39546510033961 Eh         -188993.81887 eV
One Electron Energy:     -12502.05714049116250 Eh         -340198.27014 eV
Two Electron Energy:       5556.66167539082289 Eh          151204.45127 eV

Virial components:
Potential Energy   :      -4270.83686997681707 Eh         -116215.37951 eV
Kinetic Energy     :       2100.18286769427323 Eh           57148.88122 eV
Virial Ratio       :          2.03355476119355

DFT components:
N(Alpha)           :      147.999973451072 electrons
N(Beta)            :      147.999973451072 electrons
N(Total)           :      295.999946902144 electrons
E(X)               :     -253.800551601780 Eh       
E(C)               :      -11.051973451815 Eh       
E(XC)              :     -264.852525053595 Eh       

---------------
SCF CONVERGENCE
---------------

  Last Energy change         ...   -1.5043e-09  Tolerance :   1.0000e-09
  Last MAX-Density change    ...    2.9229e-05  Tolerance :   1.0000e-08
  Last RMS-Density change    ...    1.6394e-07  Tolerance :   1.0000e-09
  Last DIIS Error            ...    7.7943e-04  Tolerance :   1.0000e-08
  Last Orbital Gradient      ...    1.9854e-07  Tolerance :   2.0000e-06
  Last Orbital Rotation      ...    6.7074e-07  Tolerance :   2.0000e-06


----------------
ORBITAL ENERGIES
----------------

  NO   OCC          E(Eh)            E(eV) 
   0   2.0000     -76.367247     -2078.0584 
   1   2.0000     -76.366697     -2078.0435 
   2   2.0000      -9.915897      -269.8253 
   3   2.0000      -9.915228      -269.8071 
   4   2.0000      -9.914494      -269.7871 
   5   2.0000      -9.914398      -269.7845 
   6   2.0000      -9.913162      -269.7509 
   7   2.0000      -9.911568      -269.7075 
   8   2.0000      -9.908373      -269.6205 
   9   2.0000      -9.908340      -269.6196 
  10   2.0000      -9.908103      -269.6132 
  11   2.0000      -9.908050      -269.6117 
  12   2.0000      -9.907957      -269.6092 
  13   2.0000      -9.907869      -269.6068 
  14   2.0000      -9.907800      -269.6049 
  15   2.0000      -9.907656      -269.6010 
  16   2.0000      -9.907635      -269.6005 
  17   2.0000      -9.907511      -269.5971 
  18   2.0000      -9.907480      -269.5962 
  19   2.0000      -9.907345      -269.5926 
  20   2.0000      -9.907343      -269.5925 
  21   2.0000      -9.907299      -269.5913 
  22   2.0000      -9.907263      -269.5903 
  23   2.0000      -9.907075      -269.5852 
  24   2.0000      -9.907027      -269.5839 
  25   2.0000      -9.906998      -269.5831 
  26   2.0000      -9.906973      -269.5824 
  27   2.0000      -9.906943      -269.5816 
  28   2.0000      -9.906934      -269.5814 
  29   2.0000      -9.906930      -269.5813 
  30   2.0000      -9.906743      -269.5762 
  31   2.0000      -9.906465      -269.5686 
  32   2.0000      -9.906299      -269.5641 
  33   2.0000      -9.906172      -269.5606 
  34   2.0000      -9.905802      -269.5506 
  35   2.0000      -9.905536      -269.5433 
  36   2.0000      -9.904205      -269.5071 
  37   2.0000      -9.902596      -269.4633 
  38   2.0000      -6.323696      -172.0765 
  39   2.0000      -6.323218      -172.0635 
  40   2.0000      -4.539845      -123.5355 
  41   2.0000      -4.539780      -123.5337 
  42   2.0000      -4.539386      -123.5230 
  43   2.0000      -4.539246      -123.5192 
  44   2.0000      -4.537026      -123.4587 
  45   2.0000      -4.536561      -123.4461 
  46   2.0000      -2.833773       -77.1109 
  47   2.0000      -1.718888       -46.7733 
  48   2.0000      -1.716633       -46.7120 
  49   2.0000      -1.714841       -46.6632 
  50   2.0000      -0.784562       -21.3490 
  51   2.0000      -0.783865       -21.3301 
  52   2.0000      -0.777019       -21.1438 
  53   2.0000      -0.776705       -21.1352 
  54   2.0000      -0.776577       -21.1317 
  55   2.0000      -0.775623       -21.1058 
  56   2.0000      -0.703489       -19.1429 
  57   2.0000      -0.702620       -19.1193 
  58   2.0000      -0.680158       -18.5080 
  59   2.0000      -0.679711       -18.4959 
  60   2.0000      -0.678228       -18.4555 
  61   2.0000      -0.678061       -18.4510 
  62   2.0000      -0.677602       -18.4385 
  63   2.0000      -0.675839       -18.3905 
  64   2.0000      -0.673725       -18.3330 
  65   2.0000      -0.673369       -18.3233 
  66   2.0000      -0.672739       -18.3061 
  67   2.0000      -0.671977       -18.2854 
  68   2.0000      -0.593894       -16.1607 
  69   2.0000      -0.591366       -16.0919 
  70   2.0000      -0.552162       -15.0251 
  71   2.0000      -0.551617       -15.0103 
  72   2.0000      -0.549405       -14.9501 
  73   2.0000      -0.548221       -14.9178 
  74   2.0000      -0.547691       -14.9034 
  75   2.0000      -0.545094       -14.8328 
  76   2.0000      -0.539228       -14.6731 
  77   2.0000      -0.539084       -14.6692 
  78   2.0000      -0.538096       -14.6423 
  79   2.0000      -0.536798       -14.6070 
  80   2.0000      -0.508310       -13.8318 
  81   2.0000      -0.505644       -13.7593 
  82   2.0000      -0.468345       -12.7443 
  83   2.0000      -0.467439       -12.7197 
  84   2.0000      -0.467186       -12.7128 
  85   2.0000      -0.465837       -12.6761 
  86   2.0000      -0.450862       -12.2686 
  87   2.0000      -0.448338       -12.1999 
  88   2.0000      -0.423428       -11.5221 
  89   2.0000      -0.411816       -11.2061 
  90   2.0000      -0.411173       -11.1886 
  91   2.0000      -0.409894       -11.1538 
  92   2.0000      -0.408437       -11.1141 
  93   2.0000      -0.407417       -11.0864 
  94   2.0000      -0.406268       -11.0551 
  95   2.0000      -0.402931       -10.9643 
  96   2.0000      -0.402635       -10.9562 
  97   2.0000      -0.402351       -10.9485 
  98   2.0000      -0.400745       -10.9048 
  99   2.0000      -0.397116       -10.8061 
 100   2.0000      -0.396348       -10.7852 
 101   2.0000      -0.378560       -10.3011 
 102   2.0000      -0.377888       -10.2829 
 103   2.0000      -0.377508       -10.2725 
 104   2.0000      -0.377081       -10.2609 
 105   2.0000      -0.376907       -10.2562 
 106   2.0000      -0.374554       -10.1921 
 107   2.0000      -0.368843       -10.0367 
 108   2.0000      -0.367872       -10.0103 
 109   2.0000      -0.364534        -9.9195 
 110   2.0000      -0.362545        -9.8653 
 111   2.0000      -0.345272        -9.3953 
 112   2.0000      -0.337976        -9.1968 
 113   2.0000      -0.334761        -9.1093 
 114   2.0000      -0.333137        -9.0651 
 115   2.0000      -0.330657        -8.9976 
 116   2.0000      -0.328881        -8.9493 
 117   2.0000      -0.328134        -8.9290 
 118   2.0000      -0.326053        -8.8723 
 119   2.0000      -0.308899        -8.4056 
 120   2.0000      -0.307256        -8.3609 
 121   2.0000      -0.306434        -8.3385 
 122   2.0000      -0.306348        -8.3362 
 123   2.0000      -0.305522        -8.3137 
 124   2.0000      -0.303646        -8.2626 
 125   2.0000      -0.298829        -8.1315 
 126   2.0000      -0.292978        -7.9723 
 127   2.0000      -0.292312        -7.9542 
 128   2.0000      -0.289698        -7.8831 
 129   2.0000      -0.288514        -7.8509 
 130   2.0000      -0.273638        -7.4461 
 131   2.0000      -0.259558        -7.0629 
 132   2.0000      -0.243346        -6.6218 
 133   2.0000      -0.242634        -6.6024 
 134   2.0000      -0.240216        -6.5366 
 135   2.0000      -0.238524        -6.4906 
 136   2.0000      -0.237322        -6.4579 
 137   2.0000      -0.234926        -6.3927 
 138   2.0000      -0.234075        -6.3695 
 139   2.0000      -0.232139        -6.3168 
 140   2.0000      -0.231070        -6.2877 
 141   2.0000      -0.229741        -6.2516 
 142   2.0000      -0.227702        -6.1961 
 143   2.0000      -0.223953        -6.0941 
 144   2.0000      -0.209676        -5.7056 
 145   2.0000      -0.185484        -5.0473 
 146   2.0000      -0.178544        -4.8584 
 147   2.0000      -0.174742        -4.7550 
 148   0.0000      -0.085408        -2.3241 
 149   0.0000      -0.068084        -1.8527 
 150   0.0000      -0.064837        -1.7643 
 151   0.0000      -0.061275        -1.6674 
 152   0.0000      -0.058382        -1.5886 
 153   0.0000      -0.057341        -1.5603 
 154   0.0000      -0.054231        -1.4757 
 155   0.0000      -0.051645        -1.4053 
 156   0.0000      -0.049494        -1.3468 
 157   0.0000      -0.043575        -1.1857 
 158   0.0000      -0.043105        -1.1729 
*Only the first 10 virtual orbitals were printed.

                    ********************************
                    * MULLIKEN POPULATION ANALYSIS *
                    ********************************

-----------------------
MULLIKEN ATOMIC CHARGES
-----------------------
   0 Ru:   -0.488280
   1 P :    0.434723
   2 P :    0.419732
   3 C :    0.032208
   4 C :   -0.098400
   5 C :   -0.108191
   6 C :   -0.242633
   7 C :   -0.060520
   8 C :   -0.112613
   9 C :   -0.146056
  10 C :   -0.094275
  11 C :   -0.103161
  12 C :   -0.160979
  13 C :   -0.030304
  14 C :   -0.142350
  15 C :   -0.120470
  16 C :   -0.144107
  17 C :   -0.086603
  18 C :   -0.123053
  19 C :   -0.164579
  20 C :   -0.007164
  21 C :   -0.205860
  22 C :   -0.123574
  23 C :   -0.089988
  24 C :   -0.155558
  25 C :   -0.135310
  26 C :   -0.097043
  27 C :   -0.012983
  28 C :   -0.178470
  29 C :   -0.126133
  30 C :   -0.087275
  31 C :   -0.155090
  32 C :   -0.112193
  33 C :   -0.092055
  34 C :   -0.142901
  35 C :   -0.171175
  36 C :    0.062430
  37 C :   -0.136970
  38 C :   -0.149703
  39 H :    0.155884
  40 H :    0.106582
  41 H :    0.109248
  42 H :    0.109300
  43 H :    0.133879
  44 H :    0.136890
  45 H :    0.109155
  46 H :    0.109536
  47 H :    0.108267
  48 H :    0.159297
  49 H :    0.160316
  50 H :    0.128210
  51 H :    0.108548
  52 H :    0.109572
  53 H :    0.108888
  54 H :    0.150026
  55 H :    0.109436
  56 H :    0.109983
  57 H :    0.108180
  58 H :    0.125797
  59 H :    0.125417
  60 H :    0.163908
  61 H :    0.107722
  62 H :    0.108590
  63 H :    0.110093
  64 H :    0.159188
  65 H :    0.146419
  66 H :    0.109181
  67 H :    0.109504
  68 H :    0.107862
  69 H :   -0.028293
  70 H :    0.080405
  71 H :    0.002555
  72 H :   -0.102619
Sum of atomic charges:   -0.0000000

--------------------------------
MULLIKEN REDUCED ORBITAL CHARGES
--------------------------------
  0 Rus       :     2.650464  s :     2.650464
      pz      :     2.121433  p :     6.549033
      px      :     2.231162
      py      :     2.196438
      dz2     :     1.400860  d :     7.282666
      dxz     :     1.754004
      dyz     :     1.221990
      dx2y2   :     1.165398
      dxy     :     1.740415
      f0      :     0.000535  f :     0.006116
      f+1     :     0.000701
      f-1     :     0.001240
      f+2     :     0.001722
      f-2     :     0.000018
      f+3     :     0.001128
      f-3     :     0.000773

  1 P s       :     5.515414  s :     5.515414
      pz      :     2.821681  p :     8.584013
      px      :     2.964920
      py      :     2.797411
      dz2     :     0.079876  d :     0.428888
      dxz     :     0.095427
      dyz     :     0.085122
      dx2y2   :     0.061990
      dxy     :     0.106472
      f0      :     0.005219  f :     0.036963
      f+1     :     0.005507
      f-1     :     0.004575
      f+2     :     0.004835
      f-2     :     0.005949
      f+3     :     0.004854
      f-3     :     0.006025

  2 P s       :     5.540595  s :     5.540595
      pz      :     2.822600  p :     8.572713
      px      :     2.982548
      py      :     2.767566
      dz2     :     0.085080  d :     0.430176
      dxz     :     0.095622
      dyz     :     0.071966
      dx2y2   :     0.063875
      dxy     :     0.113633
      f0      :     0.005253  f :     0.036785
      f+1     :     0.005546
      f-1     :     0.004706
      f+2     :     0.004410
      f-2     :     0.005601
      f+3     :     0.005028
      f-3     :     0.006242

  3 C s       :     3.212356  s :     3.212356
      pz      :     0.875094  p :     2.633860
      px      :     0.840841
      py      :     0.917925
      dz2     :     0.026713  d :     0.114028
      dxz     :     0.029464
      dyz     :     0.021417
      dx2y2   :     0.021640
      dxy     :     0.014795
      f0      :     0.001592  f :     0.007548
      f+1     :     0.000958
      f-1     :     0.000874
      f+2     :     0.000773
      f-2     :     0.001319
      f+3     :     0.001388
      f-3     :     0.000645

  4 C s       :     3.218462  s :     3.218462
      pz      :     0.944100  p :     2.797137
      px      :     0.943616
      py      :     0.909421
      dz2     :     0.011797  d :     0.076106
      dxz     :     0.007164
      dyz     :     0.022668
      dx2y2   :     0.014146
      dxy     :     0.020331
      f0      :     0.000906  f :     0.006695
      f+1     :     0.000921
      f-1     :     0.000510
      f+2     :     0.001598
      f-2     :     0.000752
      f+3     :     0.001373
      f-3     :     0.000635

  5 C s       :     3.223285  s :     3.223285
      pz      :     0.924886  p :     2.801709
      px      :     0.933922
      py      :     0.942900
      dz2     :     0.022425  d :     0.076502
      dxz     :     0.013385
      dyz     :     0.012203
      dx2y2   :     0.018471
      dxy     :     0.010019
      f0      :     0.000728  f :     0.006694
      f+1     :     0.001069
      f-1     :     0.001016
      f+2     :     0.001593
      f-2     :     0.000799
      f+3     :     0.000660
      f-3     :     0.000830

  6 C s       :     3.280262  s :     3.280262
      pz      :     0.942872  p :     2.869319
      px      :     1.010326
      py      :     0.916121
      dz2     :     0.013589  d :     0.086136
      dxz     :     0.009843
      dyz     :     0.023860
      dx2y2   :     0.017671
      dxy     :     0.021173
      f0      :     0.000927  f :     0.006916
      f+1     :     0.000823
      f-1     :     0.000680
      f+2     :     0.001708
      f-2     :     0.000709
      f+3     :     0.001234
      f-3     :     0.000835

  7 C s       :     3.273140  s :     3.273140
      pz      :     0.956942  p :     2.661649
      px      :     0.843950
      py      :     0.860756
      dz2     :     0.010739  d :     0.118135
      dxz     :     0.020547
      dyz     :     0.014804
      dx2y2   :     0.037398
      dxy     :     0.034647
      f0      :     0.000925  f :     0.007596
      f+1     :     0.000931
      f-1     :     0.000798
      f+2     :     0.000958
      f-2     :     0.000685
      f+3     :     0.001064
      f-3     :     0.002235

  8 C s       :     3.197682  s :     3.197682
      pz      :     0.931055  p :     2.820723
      px      :     0.973531
      py      :     0.916137
      dz2     :     0.006289  d :     0.087286
      dxz     :     0.006441
      dyz     :     0.021070
      dx2y2   :     0.034576
      dxy     :     0.018910
      f0      :     0.001025  f :     0.006922
      f+1     :     0.000635
      f-1     :     0.000775
      f+2     :     0.000518
      f-2     :     0.000944
      f+3     :     0.000996
      f-3     :     0.002030

  9 C s       :     3.254995  s :     3.254995
      pz      :     0.964204  p :     2.808205
      px      :     0.904806
      py      :     0.939195
      dz2     :     0.005822  d :     0.076226
      dxz     :     0.014216
      dyz     :     0.011345
      dx2y2   :     0.018593
      dxy     :     0.026249
      f0      :     0.001108  f :     0.006629
      f+1     :     0.000808
      f-1     :     0.000411
      f+2     :     0.000856
      f-2     :     0.000597
      f+3     :     0.000995
      f-3     :     0.001854

 10 C s       :     3.215736  s :     3.215736
      pz      :     0.951181  p :     2.795707
      px      :     0.909161
      py      :     0.935365
      dz2     :     0.008646  d :     0.076133
      dxz     :     0.016952
      dyz     :     0.007240
      dx2y2   :     0.020098
      dxy     :     0.023197
      f0      :     0.000826  f :     0.006699
      f+1     :     0.000898
      f-1     :     0.000814
      f+2     :     0.000786
      f-2     :     0.000585
      f+3     :     0.001078
      f-3     :     0.001712

 11 C s       :     3.218283  s :     3.218283
      pz      :     0.955572  p :     2.802439
      px      :     0.952734
      py      :     0.894133
      dz2     :     0.006958  d :     0.075767
      dxz     :     0.005294
      dyz     :     0.019887
      dx2y2   :     0.025885
      dxy     :     0.017743
      f0      :     0.001009  f :     0.006672
      f+1     :     0.000644
      f-1     :     0.000733
      f+2     :     0.000524
      f-2     :     0.000934
      f+3     :     0.000970
      f-3     :     0.001858

 12 C s       :     3.259837  s :     3.259837
      pz      :     0.968797  p :     2.805971
      px      :     0.882272
      py      :     0.954901
      dz2     :     0.006943  d :     0.088356
      dxz     :     0.014808
      dyz     :     0.013713
      dx2y2   :     0.020768
      dxy     :     0.032124
      f0      :     0.001094  f :     0.006816
      f+1     :     0.000776
      f-1     :     0.000441
      f+2     :     0.000868
      f-2     :     0.000669
      f+3     :     0.001043
      f-3     :     0.001923

 13 C s       :     3.260605  s :     3.260605
      pz      :     0.919615  p :     2.646676
      px      :     0.859169
      py      :     0.867892
      dz2     :     0.023550  d :     0.115427
      dxz     :     0.021379
      dyz     :     0.016389
      dx2y2   :     0.028185
      dxy     :     0.025925
      f0      :     0.000631  f :     0.007595
      f+1     :     0.001280
      f-1     :     0.000937
      f+2     :     0.001353
      f-2     :     0.001244
      f+3     :     0.001021
      f-3     :     0.001129

 14 C s       :     3.236342  s :     3.236342
      pz      :     0.914713  p :     2.812563
      px      :     0.951455
      py      :     0.946395
      dz2     :     0.029449  d :     0.086541
      dxz     :     0.021577
      dyz     :     0.020759
      dx2y2   :     0.005103
      dxy     :     0.009653
      f0      :     0.001730  f :     0.006904
      f+1     :     0.001173
      f-1     :     0.001064
      f+2     :     0.000983
      f-2     :     0.000937
      f+3     :     0.000452
      f-3     :     0.000565

 15 C s       :     3.208209  s :     3.208209
      pz      :     0.946053  p :     2.821162
      px      :     0.933713
      py      :     0.941396
      dz2     :     0.013269  d :     0.084219
      dxz     :     0.012234
      dyz     :     0.020070
      dx2y2   :     0.022031
      dxy     :     0.016614
      f0      :     0.000881  f :     0.006880
      f+1     :     0.000582
      f-1     :     0.000979
      f+2     :     0.001217
      f-2     :     0.001182
      f+3     :     0.000606
      f-3     :     0.001432

 16 C s       :     3.248332  s :     3.248332
      pz      :     0.951284  p :     2.812905
      px      :     0.924215
      py      :     0.937406
      dz2     :     0.009815  d :     0.076215
      dxz     :     0.011377
      dyz     :     0.015932
      dx2y2   :     0.019526
      dxy     :     0.019565
      f0      :     0.000425  f :     0.006654
      f+1     :     0.001195
      f-1     :     0.000684
      f+2     :     0.000834
      f-2     :     0.001324
      f+3     :     0.000888
      f-3     :     0.001303

 17 C s       :     3.212069  s :     3.212069
      pz      :     0.930033  p :     2.791621
      px      :     0.923514
      py      :     0.938075
      dz2     :     0.018814  d :     0.076218
      dxz     :     0.015894
      dyz     :     0.009565
      dx2y2   :     0.015407
      dxy     :     0.016538
      f0      :     0.000592  f :     0.006695
      f+1     :     0.001258
      f-1     :     0.000853
      f+2     :     0.001125
      f-2     :     0.001115
      f+3     :     0.001041
      f-3     :     0.000712

 18 C s       :     3.233864  s :     3.233864
      pz      :     0.934890  p :     2.806293
      px      :     0.960346
      py      :     0.911057
      dz2     :     0.014116  d :     0.076224
      dxz     :     0.010216
      dyz     :     0.017872
      dx2y2   :     0.018391
      dxy     :     0.015630
      f0      :     0.000879  f :     0.006672
      f+1     :     0.000622
      f-1     :     0.000934
      f+2     :     0.001154
      f-2     :     0.001154
      f+3     :     0.000596
      f-3     :     0.001334

 19 C s       :     3.247081  s :     3.247081
      pz      :     0.970567  p :     2.823631
      px      :     0.888670
      py      :     0.964394
      dz2     :     0.010703  d :     0.087081
      dxz     :     0.012584
      dyz     :     0.018839
      dx2y2   :     0.020100
      dxy     :     0.024855
      f0      :     0.000419  f :     0.006786
      f+1     :     0.001154
      f-1     :     0.000728
      f+2     :     0.000850
      f-2     :     0.001318
      f+3     :     0.000951
      f-3     :     0.001367

 20 C s       :     3.251208  s :     3.251208
      pz      :     0.931661  p :     2.631494
      px      :     0.855365
      py      :     0.844468
      dz2     :     0.014988  d :     0.116915
      dxz     :     0.014877
      dyz     :     0.023586
      dx2y2   :     0.028734
      dxy     :     0.034730
      f0      :     0.000764  f :     0.007547
      f+1     :     0.001371
      f-1     :     0.000581
      f+2     :     0.001157
      f-2     :     0.000934
      f+3     :     0.001306
      f-3     :     0.001435

[...]
      pz      :     0.022621  p :     0.057490
      px      :     0.015424
      py      :     0.019445

 58 H s       :     0.787080  s :     0.787080
      pz      :     0.016425  p :     0.060515
      px      :     0.030459
      py      :     0.013631

 59 H s       :     0.791024  s :     0.791024
      pz      :     0.016924  p :     0.059986
      px      :     0.030539
      py      :     0.012523

 60 H s       :     0.781404  s :     0.781404
      pz      :     0.012972  p :     0.061503
      px      :     0.013374
      py      :     0.035157

 61 H s       :     0.796840  s :     0.796840
      pz      :     0.016851  p :     0.057519
      px      :     0.027695
      py      :     0.012972

 62 H s       :     0.797026  s :     0.797026
      pz      :     0.012558  p :     0.057508
      px      :     0.013599
      py      :     0.031351

 63 H s       :     0.797804  s :     0.797804
      pz      :     0.018749  p :     0.057504
      px      :     0.018130
      py      :     0.020625

 64 H s       :     0.782307  s :     0.782307
      pz      :     0.025908  p :     0.061195
      px      :     0.015300
      py      :     0.019987

 65 H s       :     0.784123  s :     0.784123
      pz      :     0.012222  p :     0.059792
      px      :     0.021454
      py      :     0.026116

 66 H s       :     0.796974  s :     0.796974
      pz      :     0.022734  p :     0.057467
      px      :     0.015057
      py      :     0.019676

 67 H s       :     0.798075  s :     0.798075
      pz      :     0.031490  p :     0.057531
      px      :     0.013650
      py      :     0.012392

 68 H s       :     0.797001  s :     0.797001
      pz      :     0.011852  p :     0.057504
      px      :     0.020319
      py      :     0.025333

 69 H s       :     0.863407  s :     0.863407
      pz      :     0.028669  p :     0.055213
      px      :     0.009960
      py      :     0.016584

 70 H s       :     0.815782  s :     0.815782
      pz      :     0.022505  p :     0.062585
      px      :     0.010426
      py      :     0.029654

 71 H s       :     0.887286  s :     0.887286
      pz      :     0.016624  p :     0.047081
      px      :     0.015608
      py      :     0.014849

 72 H s       :     0.980109  s :     0.980109
      pz      :     0.009118  p :     0.030946
      px      :     0.010834
      py      :     0.010994



                      *****************************
                      * MAYER POPULATION ANALYSIS *
                      *****************************

  NA   - Mulliken gross atomic population
  ZA   - Total nuclear charge
  QA   - Mulliken gross atomic charge
  VA   - Mayer's total valence
  BVA  - Mayer's bonded valence
  FA   - Mayer's free valence

  ATOM       NA         ZA         QA         VA         BVA        FA
  0 Ru    16.4883    16.0000    -0.4883     4.9846     4.9846    -0.0000
  1 P     14.5653    15.0000     0.4347     4.1288     4.1288     0.0000
  2 P     14.5803    15.0000     0.4197     4.1073     4.1073     0.0000
  3 C      5.9678     6.0000     0.0322     3.8405     3.8405     0.0000
  4 C      6.0984     6.0000    -0.0984     3.8838     3.8838    -0.0000
  5 C      6.1082     6.0000    -0.1082     3.9027     3.9027     0.0000
  6 C      6.2426     6.0000    -0.2426     3.9268     3.9268     0.0000
  7 C      6.0605     6.0000    -0.0605     3.8376     3.8376    -0.0000
  8 C      6.1126     6.0000    -0.1126     3.8728     3.8728     0.0000
  9 C      6.1461     6.0000    -0.1461     3.9416     3.9416    -0.0000
 10 C      6.0943     6.0000    -0.0943     3.8725     3.8725     0.0000
 11 C      6.1032     6.0000    -0.1032     3.8778     3.8778    -0.0000
 12 C      6.1610     6.0000    -0.1610     3.8399     3.8399    -0.0000
 13 C      6.0303     6.0000    -0.0303     3.8145     3.8145    -0.0000
 14 C      6.1424     6.0000    -0.1424     3.9045     3.9045    -0.0000
 15 C      6.1205     6.0000    -0.1205     3.9174     3.9174    -0.0000
 16 C      6.1441     6.0000    -0.1441     3.9403     3.9403    -0.0000
 17 C      6.0866     6.0000    -0.0866     3.8612     3.8612    -0.0000
 18 C      6.1231     6.0000    -0.1231     3.9037     3.9037    -0.0000
 19 C      6.1646     6.0000    -0.1646     3.8281     3.8281    -0.0000
 20 C      6.0072     6.0000    -0.0072     3.7497     3.7497    -0.0000
 21 C      6.2059     6.0000    -0.2059     3.8963     3.8963    -0.0000
 22 C      6.1236     6.0000    -0.1236     3.9360     3.9360    -0.0000
 23 C      6.0900     6.0000    -0.0900     3.8705     3.8705     0.0000
 24 C      6.1556     6.0000    -0.1556     3.9379     3.9379    -0.0000
 25 C      6.1353     6.0000    -0.1353     3.9228     3.9228     0.0000
 26 C      6.0970     6.0000    -0.0970     3.8656     3.8656    -0.0000
 27 C      6.0130     6.0000    -0.0130     3.7578     3.7578     0.0000
 28 C      6.1785     6.0000    -0.1785     3.9208     3.9208     0.0000
 29 C      6.1261     6.0000    -0.1261     3.9089     3.9089    -0.0000
 30 C      6.0873     6.0000    -0.0873     3.8615     3.8615     0.0000
 31 C      6.1551     6.0000    -0.1551     3.9414     3.9414    -0.0000
 32 C      6.1122     6.0000    -0.1122     3.8605     3.8605     0.0000
 33 C      6.0921     6.0000    -0.0921     3.8730     3.8730     0.0000
 34 C      6.1429     6.0000    -0.1429     3.9389     3.9389    -0.0000
 35 C      6.1712     6.0000    -0.1712     3.8783     3.8783    -0.0000
 36 C      5.9376     6.0000     0.0624     3.6921     3.6921    -0.0000
 37 C      6.1370     6.0000    -0.1370     3.8971     3.8971    -0.0000
 38 C      6.1497     6.0000    -0.1497     3.9357     3.9357    -0.0000
 39 H      0.8441     1.0000     0.1559     0.9712     0.9712    -0.0000
 40 H      0.8934     1.0000     0.1066     0.9707     0.9707    -0.0000
 41 H      0.8908     1.0000     0.1092     0.9666     0.9666     0.0000
 42 H      0.8907     1.0000     0.1093     0.9683     0.9683    -0.0000
 43 H      0.8661     1.0000     0.1339     0.9693     0.9693    -0.0000
 44 H      0.8631     1.0000     0.1369     0.9753     0.9753     0.0000
 45 H      0.8908     1.0000     0.1092     0.9679     0.9679    -0.0000
 46 H      0.8905     1.0000     0.1095     0.9667     0.9667    -0.0000
 47 H      0.8917     1.0000     0.1083     0.9704     0.9704     0.0000
 48 H      0.8407     1.0000     0.1593     0.9497     0.9497    -0.0000
 49 H      0.8397     1.0000     0.1603     0.9514     0.9514    -0.0000
 50 H      0.8718     1.0000     0.1282     1.0026     1.0026     0.0000
 51 H      0.8915     1.0000     0.1085     0.9702     0.9702     0.0000
 52 H      0.8904     1.0000     0.1096     0.9665     0.9665     0.0000
 53 H      0.8911     1.0000     0.1089     0.9695     0.9695     0.0000
 54 H      0.8500     1.0000     0.1500     0.9573     0.9573     0.0000
 55 H      0.8906     1.0000     0.1094     0.9691     0.9691    -0.0000
 56 H      0.8900     1.0000     0.1100     0.9664     0.9664     0.0000
 57 H      0.8918     1.0000     0.1082     0.9699     0.9699     0.0000
 58 H      0.8742     1.0000     0.1258     0.9863     0.9863    -0.0000
 59 H      0.8746     1.0000     0.1254     0.9874     0.9874    -0.0000
 60 H      0.8361     1.0000     0.1639     0.9438     0.9438    -0.0000
 61 H      0.8923     1.0000     0.1077     0.9711     0.9711    -0.0000
 62 H      0.8914     1.0000     0.1086     0.9688     0.9688    -0.0000
 63 H      0.8899     1.0000     0.1101     0.9664     0.9664     0.0000
 64 H      0.8408     1.0000     0.1592     0.9511     0.9511     0.0000
 65 H      0.8536     1.0000     0.1464     0.9830     0.9830    -0.0000
 66 H      0.8908     1.0000     0.1092     0.9691     0.9691    -0.0000
 67 H      0.8905     1.0000     0.1095     0.9664     0.9664     0.0000
 68 H      0.8921     1.0000     0.1079     0.9708     0.9708    -0.0000
 69 H      1.0283     1.0000    -0.0283     1.0151     1.0151     0.0000
 70 H      0.9196     1.0000     0.0804     0.9887     0.9887    -0.0000
 71 H      0.9974     1.0000     0.0026     1.0254     1.0254     0.0000
 72 H      1.1026     1.0000    -0.1026     1.0030     1.0030     0.0000

  Mayer bond orders larger than 0.100000
B(  0-Ru,  1-P ) :   0.9784 B(  0-Ru,  2-P ) :   0.9615 B(  0-Ru, 69-H ) :   0.4414 
B(  0-Ru, 70-H ) :   0.4451 B(  0-Ru, 71-H ) :   0.9579 B(  0-Ru, 72-H ) :   0.7923 
B(  1-P ,  3-C ) :   0.9448 B(  1-P ,  7-C ) :   0.9658 B(  1-P , 36-C ) :   0.9070 
B(  2-P , 13-C ) :   0.9393 B(  2-P , 20-C ) :   0.9101 B(  2-P , 27-C ) :   0.9155 
B(  3-C , 14-C ) :   1.3691 B(  3-C , 35-C ) :   1.3183 B(  4-C ,  5-C ) :   1.3745 
B(  4-C , 38-C ) :   1.3920 B(  4-C , 46-H ) :   0.9668 B(  5-C ,  6-C ) :   1.4034 
B(  5-C , 45-H ) :   0.9689 B(  6-C , 36-C ) :   1.2865 B(  6-C , 44-H ) :   0.9554 
B(  7-C ,  8-C ) :   1.3670 B(  7-C , 12-C ) :   1.2929 B(  8-C ,  9-C ) :   1.4115 
B(  8-C , 39-H ) :   0.9202 B(  9-C , 10-C ) :   1.3840 B(  9-C , 40-H ) :   0.9759 
B( 10-C , 11-C ) :   1.3726 B( 10-C , 41-H ) :   0.9670 B( 11-C , 12-C ) :   1.3883 
B( 11-C , 42-H ) :   0.9693 B( 12-C , 43-H ) :   0.9520 B( 13-C , 15-C ) :   1.3707 
B( 13-C , 19-C ) :   1.2932 B( 14-C , 25-C ) :   1.4153 B( 14-C , 50-H ) :   0.9251 
B( 15-C , 16-C ) :   1.4109 B( 15-C , 58-H ) :   0.9352 B( 16-C , 17-C ) :   1.3766 
B( 16-C , 57-H ) :   0.9716 B( 17-C , 18-C ) :   1.3813 B( 17-C , 56-H ) :   0.9667 
B( 18-C , 19-C ) :   1.3896 B( 18-C , 55-H ) :   0.9704 B( 19-C , 54-H ) :   0.9574 
B( 20-C , 21-C ) :   1.2973 B( 20-C , 26-C ) :   1.3468 B( 21-C , 22-C ) :   1.4127 
B( 21-C , 59-H ) :   0.9461 B( 22-C , 23-C ) :   1.3791 B( 22-C , 62-H ) :   0.9695 
B( 23-C , 24-C ) :   1.3836 B( 23-C , 63-H ) :   0.9672 B( 24-C , 26-C ) :   1.4104 
B( 24-C , 61-H ) :   0.9725 B( 25-C , 33-C ) :   1.3744 B( 25-C , 51-H ) :   0.9705 
B( 26-C , 60-H ) :   0.9261 B( 27-C , 28-C ) :   1.3226 B( 27-C , 32-C ) :   1.3408 
B( 28-C , 29-C ) :   1.4044 B( 28-C , 65-H ) :   0.9411 B( 29-C , 30-C ) :   1.3673 
B( 29-C , 66-H ) :   0.9691 B( 30-C , 31-C ) :   1.3866 B( 30-C , 67-H ) :   0.9675 
B( 31-C , 32-C ) :   1.4056 B( 31-C , 68-H ) :   0.9728 B( 32-C , 64-H ) :   0.9303 
B( 33-C , 34-C ) :   1.3871 B( 33-C , 52-H ) :   0.9665 B( 34-C , 35-C ) :   1.4087 
B( 34-C , 53-H ) :   0.9682 B( 35-C , 49-H ) :   0.9410 B( 36-C , 37-C ) :   1.3473 
B( 37-C , 38-C ) :   1.4069 B( 37-C , 48-H ) :   0.9341 B( 38-C , 47-H ) :   0.9708 
B( 69-H , 70-H ) :   0.5259 

-------
TIMINGS
-------

Total SCF time: 0 days 0 hours 39 min 4 sec 

Total time                  ....    2344.754 sec
Sum of individual times     ....    2297.719 sec  ( 98.0%)

SCF preparation             ....       0.862 sec  (  0.0%)
Fock matrix formation       ....    2210.536 sec  ( 94.3%)
  Startup                   ....       0.327 sec  (  0.0% of F)
  Split-RI-J                ....     860.295 sec  ( 38.9% of F)
  XC integration            ....    1399.071 sec  ( 63.3% of F)
    XC Preparation          ....       0.000 sec  (  0.0% of XC)
    Basis function eval.    ....     342.073 sec  ( 24.5% of XC)
    Density eval.           ....     580.622 sec  ( 41.5% of XC)
    XC-Functional eval.     ....      15.495 sec  (  1.1% of XC)
    XC-Potential eval.      ....     446.092 sec  ( 31.9% of XC)
Diagonalization             ....       0.000 sec  (  0.0%)
Density matrix formation    ....       2.344 sec  (  0.1%)
Total Energy calculation    ....       0.621 sec  (  0.0%)
Population analysis         ....       1.462 sec  (  0.1%)
Orbital Transformation      ....       7.765 sec  (  0.3%)
Orbital Orthonormalization  ....       0.000 sec  (  0.0%)
DIIS solution               ....      39.236 sec  (  1.7%)
SOSCF solution              ....      34.894 sec  (  1.5%)
Finished LeanSCF after 2344.9 sec

Maximum memory used throughout the entire LEANSCF-calculation: 400.2 MB

-------------------------   --------------------
FINAL SINGLE POINT ENERGY     -2170.654002282544
-------------------------   --------------------


------------------------------------------------------------------------------
                              ORCA PROPERTY CALCULATIONS
------------------------------------------------------------------------------

GBWName                                 ... 15h_def2tzvp.gbw
Number of atoms                         ...     73
Number of basis functions               ...   1434
Max core memory                         ...   4096 MB

Electric properties:
Dipole moment                           ... YES
Quadrupole moment                       ...  NO
Static polarizability (Dipole/Dipole)   ...  NO
Static polarizability (Dipole/Quad.)    ...  NO
Static polarizability (Quad./Quad.)     ...  NO
Static polarizability (Velocity)        ...  NO
Static hyperpolarizability              ...  NO

Atomic electric properties:
Dipole moment                           ...  NO
Quadrupole moment                       ...  NO
Static polarizability                   ...  NO

Choice of electric origin               ... Center of mass
Position of electric origin             ...    -0.000272    -0.006907    -0.010907

General magnetic properties:
Magnetizability                         ...  NO

EPR properties:
g-Tensor (aka g-matrix)                 ...  NO
Zero-Field splitting spin-orbit         ...  NO
Zero-field splitting spin-spin          ...  NO
Hyperfine couplings                     ...  NO (   0 nuclei)
Quadrupole couplings                    ...  NO (   0 nuclei)
Contact density                         ...  NO (   0 nuclei)

NMR properties:
Chemical shifts                         ...  NO (   0 nuclei)
Spin-rotation constants                 ...  NO (   0 nuclei)
Spin-spin couplings                     ...  NO (   0 nuclei,    0 pairs)

Choice of magnetic origin               ... GIAO
Position of magnetic origin             ...     0.000000     0.000000     0.000000

Properties with geometric perturbations:
SCF Hessian                             ...  NO
IR spectrum                             ...  NO
VCD spectrum                            ...  NO
X-ray spectroscopy properties:
SCF XES/XAS/RIXS spectra                ...  NO

SCF SOC stabilization energy            ...  NO
Diagonal Born-Oppenheimer correction    ...  NO

-------------
DIPOLE MOMENT
-------------

Method             : SCF
Type of density    : Electron Density
Multiplicity       :   1
Irrep              :   0
Energy             : -2170.6540022825438427 Eh
Basis              : AO
                                X                 Y                 Z
Electronic contribution:     -0.258450110     -10.963825642     -17.349229559
Nuclear contribution   :      0.284792239      10.716196757      17.613675095
                        -----------------------------------------
Total Dipole Moment    :      0.026342129      -0.247628886       0.264445537
                        -----------------------------------------
Magnitude (a.u.)       :      0.363242914
Magnitude (Debye)      :      0.923290113



--------------------
Rotational spectrum 
--------------------
 
Rotational constants in cm-1:             0.003492             0.001797             0.001775 
Rotational constants in MHz :           104.698094            53.862021            53.214998 

Dipole components along the rotational axes: 
x,y,z [a.u.] :     0.026274    -0.246636    -0.265378 
x,y,z [Debye]:     0.066784    -0.626899    -0.674538 

 

Dipole moment calculation done in   0.2 sec 

Maximum memory used throughout the entire PROP-calculation: 309.5 MB

--------------------------------
SUGGESTED CITATIONS FOR THIS RUN
--------------------------------

Below you find a list of papers that are relevant to this ORCA run
We neither can nor want to force you to cite these papers, but we appreciate if you do
You receive ORCA, which is the product of decades of hard work by many enthusiastic individuals, for free
The only thing we kindly ask in return is that you cite our papers,
We deeply appreciate it, if you show your appreciation for ORCA by not just citing the generic ORCA reference.

Please note that relegating all ORCA citations to the supporting information does *not* help us.
SI sections are not indexed - citations you put there will not count into any citation statistics
But we need these citations in order to attract the funding resources that allow us to do what we are doing

Therefore, if you are a happy ORCA user, please consider citing a few of the papers listed below in the main body of your paper

In addition to the list printed below, the program has created the file 15h_def2tzvp.bibtex that contains the list in bibtex format
You can import this file easily into all common literature databanks and citation aid programs

It goes without saying that in many instances, there are alternative algorithms to achieve similar
results as the ones you have gotten from ORCA. It is, of course, also the case that in some instances
ORCA just re-implements algorithms worked out by others. We are fully aware of that and we are also
fully appreciative of our colleagues work. Hence this citation list should not be read as indicating
that the listed papers, which are focused on our own work, are the only ones worth citing. It simply
meant to make it easier for users to cite ORCA specific papers. It is not a substitute for doing your
own literature research and citing the relevant literature in a scientifically appropriate manner.

List of essential papers. We consider these as the minimum necessary citations

  1. Neese, F.
     Software update: the ORCA program system, version 6.0
     WIRES Comput. Molec. Sci. 2025 15(1), e70019
     doi.org/10.1002/wcms.70019

List of papers to cite with high priority. The work reported in these papers was absolutely
necessary for this run to complete.
Our perspective: the developers of density functionals and basis sets usually get cited in chemistry papers
Good! But without the algorithms to do something with them, the functionals or basis sets would not do anything.
Hence, in our opinion, the algorithm design and method developments papers are equally worthy of getting cited

  1. Neese, F.
     An improvement of the resolution of the identity approximation for the formation of the Coulomb matrix
     J. Comp. Chem. 2003 24(14), 1740-1747
     doi.org/10.1002/jcc.10318
  2. Neese, F.
     The SHARK Integral Generation and Digestion System
     J. Comp. Chem. 2022 44(3), 381
     doi.org/10.1002/jcc.26942

List of suggested additional citations. These are papers that are important in the 'surrounding' of 
of this run, or papers that preceded the highly important papers. If you like your results we are grateful for a citation.

  1. Neese, F.
     The ORCA program system
     WIRES Comput. Molec. Sci. 2012 2(1), 73-78
     doi.org/10.1002/wcms.81
  2. Neese, F.
     Software update: the ORCA program system, version 4.0
     WIRES Comput. Molec. Sci. 2018 8(1), 1-6
     doi.org/10.1002/wcms.1327
  3. Neese, F.; Wennmohs, F.; Becker, U.; Riplinger, C.
     The ORCA quantum chemistry program package
     J. Chem. Phys. 2020 152(22), 224108
     doi.org/10.1063/5.0004608
  4. Neese, F.
     Software update: The ORCA program system—Version 5.0
     WIRES Comput. Molec. Sci. 2022 12(1), e1606
     doi.org/10.1002/wcms.1606

List of optional additional citations

  1. Neese, F.
     Approximate second-order SCF convergence for spin unrestricted wavefunctions
     Chem. Phys. Lett. 2000 325(1-3), 93-98
     doi.org/10.1016/s0009-2614(00)00662-x

Timings for individual modules:

Sum of individual times          ...     2421.005 sec (=  40.350 min)
Startup calculation              ...       39.588 sec (=   0.660 min)   1.6 %
SCF iterations                   ...     2380.389 sec (=  39.673 min)  98.3 %
Property calculations            ...        1.028 sec (=   0.017 min)   0.0 %
                             ****ORCA TERMINATED NORMALLY****
TOTAL RUN TIME: 0 days 0 hours 40 minutes 21 seconds 231 msec
