
                                 *****************
                                 * O   R   C   A *
                                 *****************

                                            #,                                       
                                            ###                                      
                                            ####                                     
                                            #####                                    
                                            ######                                   
                                           ########,                                 
                                     ,,################,,,,,                         
                               ,,#################################,,                 
                          ,,##########################################,,             
                       ,#########################################, ''#####,          
                    ,#############################################,,   '####,        
                  ,##################################################,,,,####,       
                ,###########''''           ''''###############################       
              ,#####''   ,,,,##########,,,,          '''####'''          '####       
            ,##' ,,,,###########################,,,                        '##       
           ' ,,###''''                  '''############,,,                           
         ,,##''                                '''############,,,,        ,,,,,,###''
      ,#''                                            '''#######################'''  
     '                                                          ''''####''''         
             ,#######,   #######,   ,#######,      ##                                
            ,#'     '#,  ##    ##  ,#'     '#,    #''#        ,####,    ,#,          
            ##       ##  ##   ,#'  ##            #'  '#       #'       ,# #          
            ##       ##  #######   ##           ,######,      #####,      #          
            '#,     ,#'  ##    ##  '#,     ,#' ,#      #,     #,   #      #          
             '#######'   ##     ##  '#######'  #'      '#     '####' #    #          



                #########################################################
                #                        -***-                          #
                #          Department of theory and spectroscopy        #
                #                                                       #
                #                      Frank Neese                      #
                #                                                       #
                #     Directorship, Architecture, Infrastructure        #
                #                    SHARK, DRIVERS                     #
                #        Core code/Algorithms in most modules           #
                #                                                       #
                #        Max Planck Institute fuer Kohlenforschung      #
                #                Kaiser Wilhelm Platz 1                 #
                #                 D-45470 Muelheim/Ruhr                 #
                #                      Germany                          #
                #                                                       #
                #                  All rights reserved                  #
                #                        -***-                          #
                #########################################################


                         Program Version 6.1.1  -  RELEASE   -
                                (GIT: $487d211c$)
                          ($2025-11-21 10:33:24 +0100$)


 With contributions from (in alphabetic order):
[Max-Planck-Institut fuer Kohlenforschung]                               
  Daniel Aravena         : Magnetic Suceptibility                        
  Michael Atanasov       : Ab Initio Ligand Field Theory (pilot matlab implementation)
  Alexander A. Auer      : GIAO ZORA, VPT2 properties, NMR spectrum      
  Ute Becker             : All parallelization in ORCA, NUMFREQ, NUMCALC 
  Giovanni Bistoni       : ED, misc. LED, open-shell LED, HFLD           
  Dmytro Bykov           : pre 5.0 version of the SCF Hessian            
  Marcos Casanova-Páez   : Triplet and SCS-CIS(D). UHF-(DLPNO)-IP/EA/STEOM-CCSD. UHF-CVS-IP/STEOM-CCSD   
  Vijay G. Chilkuri      : MRCI spin determinant printing, contributions to CSF-ICE 
  Pauline Colinet        : FMM embedding                                 
  Dipayan Datta          : RHF DLPNO-CCSD density                        
  Achintya Kumar Dutta   : EOM-CC, STEOM-CC                              
  Nicolas Foglia         : Exact transition moments, OPA infrastructure, MCD improvements    
  Dmitry Ganyushin       : Spin-Orbit,Spin-Spin,Magnetic field MRCI      
  Miquel Garcia-Rates    : C-PCM and meta-GGA Hessian, CCSD/C-PCM, Gaussian charge scheme 
  Tiago L. C. Gouveia    : GS-ROHF, GS-ROCIS                             
  Yang Guo               : DLPNO-NEVPT2, F12-NEVPT2, CIM, IAO-localization        
  Andreas Hansen         : Spin unrestricted coupled pair/coupled cluster methods 
  Ingolf Harden          : AUTO-CI MPn and infrastructure                
  Benjamin Helmich-Paris : MC-RPA, TRAH-(SCF,CASSCF), AVAS, COSX integrals, SCF dyn. polar., MC-PDFT, srDFT 
  Lee Huntington         : MR-EOM, pCC                                   
  Robert Izsak           : Overlap fitted RIJCOSX, COSX-SCS-MP3, EOM     
  Riya Kayal             : Wick's Theorem for AUTO-CI, AUTO-CI UHF-CCSDT 
  Emily Kempfer          : AUTO-CI RHF CISDT and CCSDT, approximate NEVPT4
  Christian Kollmar      : KDIIS, OOCD, Brueckner-CCSD(T), CCSD density, CASPT2, CASPT2-K, improved NEVPT2 
  Axel Koslowski         : Symmetry handling                             
  Simone Kossmann        : meta-GGA functionals, TD-DFT gradient, OOMP2, (MP2 Hessian; deprecated post 5.0) 
  Lucas Lang             : DCDCAS, Hyperfine gauge corrections, ICE-SOC+SSC
  Marvin Lechner         : AUTO-CI (C++ implementation), FIC-MRCC        
  Spencer Leger          : CASSCF response                               
  Dagmar Lenk            : GEPOL surface, SMD, ORCA-2-JSON               
  Dimitrios Liakos       : Extrapolation schemes; Compound Job, Property file
  Dimitrios Manganas     : Further ROCIS development; embedding schemes. LFT, Crystal Embedding 
  Dimitrios Pantazis     : SARC Basis sets                               
  Anastasios Papadopoulos: AUTO-CI, single reference methods and gradients 
  Taras Petrenko         : pre 6.0 DFT Hessian and TD-DFT gradient,  ECA, NRVS 
  Petra Pikulova         : Analytic Raman intensities                    
  Peter Pinski           : DLPNO-MP2, DLPNO-MP2 Gradient                 
  Shashank Vittal Rao    : ES-AILFT, MagRelax                            
  Christoph Reimann      : Effective Core Potentials                     
  Marius Retegan         : Local ZFS, SOC                                
  Christoph Riplinger    : Optimizer, TS searches, QM/MM, DLPNO-CCSD(T), (RO)-DLPNO pert. Triples 
  Michael Roemelt        : Original ROCIS implementation, recursive CI coupling coefficients
  Masaaki Saitow         : Open-shell DLPNO-CCSD energy and density      
  Barbara Sandhoefer     : DKH picture change effects                    
  Yorick L. A. Schmerwitz: GMF and freeze-and-release deltaSCF, NEB S-IDPP initial path                    
  Kantharuban Sivalingam : CASSCF convergence/infrastructure, NEVPT2, NEVPT3, NEVPT4(SD), FIC-MRCI and CEPA variants
  Bernardo de Souza      : ESD, SOC TD-DFT                               
  Georgi L. Stoychev     : AutoAux, RI-MP2 NMR, DLPNO-MP2 response, X2C  
  Van Anh Tran           : RI-MP2 g-tensors                              
  Willem Van den Heuvel  : Paramagnetic NMR                              
  Zikuan Wang            : NOTCH, Electric field optimization            
  Frank Wennmohs         : Technical directorship and infrastructure     
  Hang Xu                : AUTO-CI-Response properties                   
                                                                         
[FACCTs GmbH]                                                            
  Markus Bursch, Nicolas Foglia, Miquel Garcia-Rates, Ingolf Harden, Hagen Neugebauer, Anastasios Papadopoulos, 
  Christoph Riplinger, Bernardo de Souza, Georgi L. Stoychev                                                    
                                                                 
  APM, various basis sets, CI-OPT, improved COSX, DLPNO-Multilevel,           
  DOCKER, DRACO, updates on ESD, Fragmentator, GOAT, IRC, LR-CPCM, L-BFGS, MBIS, meta-GGA TD-DFT gradient, ML-optimized integration grids, 
  MM, NACMEs, nearIR, NEB, NEB-TS, NL-DFT gradient (VV10), 2- and 3-layer-ONIOM, interface openCOSMO-RS, QMMM,   
  Crystal-QMMM, RESP, rigid body optimization, SF, symmetry and pop. for TD-DFT, various functionals, SOLVATOR                                   
                                                                         
[Other institutions]                                                     
  V. Asgeirsson          : NEB                                           
  Christoph Bannwarth    : sTDA-DFT, sTD-DFT, PBEh-3c, B97-3c, D3        
  Giovanni Bistoni       : ETS/NOCV, ADLD/ADEX, COVALED                  
  Martin Brehm           : Molecular dynamics                            
  Ronald Cardenas        : ETS/NOCV                                      
  Martina Colucci        : COVALED                                       
  Sebastian Ehlert       : rSCAN, r2SCAN, r2SCAN-3c, D4, dhf basis sets  
  Marvin Friede          : D4 for Fr, Ra, Ac-Lr                          
  Lars Goerigk           : TD-DFT with DH, B97 family of functionals     
  Stefan Grimme          : VdW corrections, initial TS optimization, DFT functionals, gCP, sTDA/sTD-DF 
  Waldemar Hujo          : DFT-NL                                        
  H. Jonsson             : NEB                                           
  Holger Kruse           : gCP                                           
  Marcel Mueller         : wB97X-3c, vDZP basis set                      
  Hagen Neugebauer       : wr2SCAN, Native XTB                           
  Gianluca Regni         : ADLD/ADEX                                     
  Tobias Risthaus        : pre 6.0 range-separated hybrid DFT and stability analysis
  Lukas Wittmann         : regularized MP2, r2SCAN double-hybrids, wr2SCAN        
                                                                         
We gratefully acknowledge several colleagues who have allowed us to      
interface, adapt or use parts of their codes:                            
  Ed Valeev, F. Pavosevic, A. Kumar             : LibInt (2-el integral package), F12 methods 
  Garnet Chan, S. Sharma, J. Yang, R. Olivares  : DMRG                   
  Ulf Ekstrom                                   : XCFun DFT Library      
  Mihaly Kallay                                 : mrcc  (arbitrary order and MRCC methods)
  Frank Weinhold                                : gennbo (NPA and NBO analysis)           
  Simon Mueller                                 : openCOSMO-RS                            
  Christopher J. Cramer and Donald G. Truhlar   : smd solvation model                     
  S Lehtola, MJT Oliveira, MAL Marques          : LibXC Library                           
  Liviu Ungur et al                             : ANISO software                          


 Your calculation uses the libint2 library for the computation of 2-el integrals
 For citations please refer to: http://libint.valeyev.net

 Your ORCA version has been built with support for libXC version: 7.0.0
 For citations please refer to: https://libxc.gitlab.io

 This ORCA versions uses:
   CBLAS   interface :  Fast vector & matrix operations
   LAPACKE interface :  Fast linear algebra routines
   SCALAPACK package :  Parallel linear algebra routines
   Shared memory     :  Shared parallel matrices
   BLAS/LAPACK       :  OpenBLAS 0.3.29  USE64BITINT DYNAMIC_ARCH NO_AFFINITY Haswell SINGLE_THREADED
        Core in use  :  Haswell
   Copyright (c) 2011-2014, The OpenBLAS Project


  ***********************************
  * Starting time: Thu Jul  9 12:35:31 2026
  * Host name:     ylva-work-pc
  * Process ID:    126322
  * Working dir.:  /home/ylvao/work/projects/bsse
  ***********************************

Warning: RI is on but no J-basis has been assigned. Assigning Def2/J (nothing to worry about!)
================================================================================

cite the ECPs for Ru [Def2-ECP] as follows:
Ce-Yb(ecp-28): M. Dolg, H. Stoll, H.Preuss, J. Chem. Phys., 1989, 90, 1730-1734.
Y-Cd(ecp-28), Hf-Hg(ecp-46): D. Andrae,U. Haeussermann, M. Dolg, H. Stoll, H. Preuss, Theor. Chim. Acta, 1990, 77, 123-141.
In-Sb(ecp-28), Tl-Bi(ecp-46): B. Metz, H. Stoll, M. Dolg, J. Chem. Phys., 2000, 113, 2563-2569.
Te-Xe(ecp-28), Po-Rn(ecp-46): K. A. Peterson, D. Figgen, E. Goll, H. Stoll, M. Dolg, J. Chem. Phys., 2003, 119, 11113-11123.
Rb(ecp-28), Cs(ecp-46): T. Leininger, A. Nicklass, W. Kuechle, H. Stoll, M. Dolg, A. Bergner, Chem. Phys. Lett., 1996, 255, 274-280.
Sr(ecp-28), Ba(ecp-46): M. Kaupp, P. V. Schleyer, H. Stoll and H. Preuss, J. Chem. Phys., 1991, 94, 1360-1366.
La(ecp-46): M. Dolg, H. Stoll, A. Savin, H. Preuss, Theor. Chim. Acta, 1989, 75, 173-194.
Lu(ecp-28): X. Cao, M. Dolg, J. Chem. Phys., 2001, 115, 7348-7355.

ECP parameters for Ru [Def2-ECP] have been obtained from:
TURBOMOLE (7.0.2)

----- Orbital basis set information -----
Your calculation utilizes the basis: def2-QZVP
   F. Weigend and R. Ahlrichs, Phys. Chem. Chem. Phys. 7, 3297 (2005).

----- AuxJ basis set information -----
Your calculation utilizes the auxiliary basis: def2/J
   H-Rn: F. Weigend, Phys. Chem. Chem. Phys. 8, 1057 (2006).
   Fr-Lr: K. Eichkorn, F. Weigend, O. Treutler, R. Ahlrichs; Theor. Chem. Acc. 97, 119 (1997).

================================================================================
                                        WARNINGS
                       Please study these warnings very carefully!
================================================================================


================================================================================
                                       INPUT FILE
================================================================================
NAME = 15h_def2qzvp.inp
|  1> ! BP86 def2-QZVP VeryTightSCF defgrid3
|  2> 
|  3> *xyz 0 1
|  4> Ru -0.003858 -0.163889 -0.271867
|  5> P -2.297768 -0.007621 -0.144184
|  6> P 2.287169 -0.017737 -0.156253
|  7> C -2.911647 -0.599535 1.515487
|  8> C -4.685018 -2.651731 -3.192189
|  9> C -3.814101 -3.233195 -2.253048
| 10> C -3.131150 -2.427303 -1.330945
| 11> C -3.114479 1.658920 -0.250013
| 12> C -2.362022 2.783003 -0.650011
| 13> C -2.965845 4.049809 -0.733501
| 14> C -4.323605 4.206007 -0.412900
| 15> C -5.079741 3.093236 -0.002279
| 16> C -4.480344 1.827521 0.080460
| 17> C 3.095834 1.619147 -0.504111
| 18> C -2.171085 -0.211966 2.659457
| 19> C 2.525407 2.481327 -1.466488
| 20> C 3.129740 3.712566 -1.768240
| 21> C 4.306822 4.101575 -1.107417
| 22> C 4.880093 3.254350 -0.144042
| 23> C 4.281389 2.019500 0.155693
| 24> C 3.362704 -1.179941 -1.143988
| 25> C 2.942300 -2.524227 -1.283972
| 26> C 3.712726 -3.442373 -2.014309
| 27> C 4.905709 -3.029079 -2.631533
| 28> C 5.326691 -1.695059 -2.509044
| 29> C -2.568324 -0.625371 3.940427
| 30> C 4.565187 -0.776227 -1.766802
| 31> C 2.861239 -0.364185 1.583653
| 32> C 2.371020 0.461983 2.626799
| 33> C 2.717629 0.203094 3.961166
| 34> C 3.546125 -0.888449 4.277679
| 35> C 4.031734 -1.715720 3.252536
| 36> C 3.695943 -1.456310 1.912370
| 37> C -3.707207 -1.433122 4.099439
| 38> C -4.445772 -1.827475 2.971604
| 39> C -4.052788 -1.416625 1.686379
| 40> C -3.323064 -1.022952 -1.319037
| 41> C -4.200392 -0.449774 -2.266112
| 42> C -4.872058 -1.261108 -3.197986
| 43> H -1.298755 2.649696 -0.870975
| 44> H -2.370191 4.915014 -1.041918
| 45> H -4.792336 5.193394 -0.473894
| 46> H -6.135714 3.213453 0.260137
| 47> H -5.065805 0.965746 0.415281
| 48> H -2.437173 -2.881612 -0.614882
| 49> H -3.660763 -4.317245 -2.244132
| 50> H -5.210149 -3.281332 -3.917206
| 51> H -5.544384 -0.800435 -3.929013
| 52> H -4.359007 0.632153 -2.270941
| 53> H -4.621891 -1.742439 0.810763
| 54> H -1.282015 0.416196 2.530447
| 55> H -1.984390 -0.319193 4.814389
| 56> H -4.015448 -1.757570 5.098333
| 57> H -5.331982 -2.459566 3.090250
| 58> H 4.724103 1.366408 0.913741
| 59> H 5.793845 3.555443 0.378349
| 60> H 4.773395 5.064508 -1.338103
| 61> H 2.675337 4.371244 -2.515380
| 62> H 1.596354 2.180557 -1.961758
| 63> H 1.997789 -2.839423 -0.827035
| 64> H 4.900859 0.260216 -1.672911
| 65> H 6.251546 -1.364623 -2.992861
| 66> H 3.374252 -4.479068 -2.110682
| 67> H 5.500286 -3.742732 -3.210487
| 68> H 4.081472 -2.100363 1.116945
| 69> H 1.717455 1.304389 2.376404
| 70> H 2.338921 0.854023 4.755956
| 71> H 3.811124 -1.091676 5.320045
| 72> H 4.679547 -2.565105 3.492624
| 73> H -0.073143 -1.801039 -0.912445
| 74> H -0.035696 -1.231505 -1.614805
| 75> H -0.002430 0.718155 -1.563089
| 76> H 0.035829 1.263937 0.526471
| 77> **                         ****END OF INPUT****
================================================================================

                       ****************************
                       * Single Point Calculation *
                       ****************************

---------------------------------
CARTESIAN COORDINATES (ANGSTROEM)
---------------------------------
  Ru    -0.003858   -0.163889   -0.271867
  P     -2.297768   -0.007621   -0.144184
  P      2.287169   -0.017737   -0.156253
  C     -2.911647   -0.599535    1.515487
  C     -4.685018   -2.651731   -3.192189
  C     -3.814101   -3.233195   -2.253048
  C     -3.131150   -2.427303   -1.330945
  C     -3.114479    1.658920   -0.250013
  C     -2.362022    2.783003   -0.650011
  C     -2.965845    4.049809   -0.733501
  C     -4.323605    4.206007   -0.412900
  C     -5.079741    3.093236   -0.002279
  C     -4.480344    1.827521    0.080460
  C      3.095834    1.619147   -0.504111
  C     -2.171085   -0.211966    2.659457
  C      2.525407    2.481327   -1.466488
  C      3.129740    3.712566   -1.768240
  C      4.306822    4.101575   -1.107417
  C      4.880093    3.254350   -0.144042
  C      4.281389    2.019500    0.155693
  C      3.362704   -1.179941   -1.143988
  C      2.942300   -2.524227   -1.283972
  C      3.712726   -3.442373   -2.014309
  C      4.905709   -3.029079   -2.631533
  C      5.326691   -1.695059   -2.509044
  C     -2.568324   -0.625371    3.940427
  C      4.565187   -0.776227   -1.766802
  C      2.861239   -0.364185    1.583653
  C      2.371020    0.461983    2.626799
  C      2.717629    0.203094    3.961166
  C      3.546125   -0.888449    4.277679
  C      4.031734   -1.715720    3.252536
  C      3.695943   -1.456310    1.912370
  C     -3.707207   -1.433122    4.099439
  C     -4.445772   -1.827475    2.971604
  C     -4.052788   -1.416625    1.686379
  C     -3.323064   -1.022952   -1.319037
  C     -4.200392   -0.449774   -2.266112
  C     -4.872058   -1.261108   -3.197986
  H     -1.298755    2.649696   -0.870975
  H     -2.370191    4.915014   -1.041918
  H     -4.792336    5.193394   -0.473894
  H     -6.135714    3.213453    0.260137
  H     -5.065805    0.965746    0.415281
  H     -2.437173   -2.881612   -0.614882
  H     -3.660763   -4.317245   -2.244132
  H     -5.210149   -3.281332   -3.917206
  H     -5.544384   -0.800435   -3.929013
  H     -4.359007    0.632153   -2.270941
  H     -4.621891   -1.742439    0.810763
  H     -1.282015    0.416196    2.530447
  H     -1.984390   -0.319193    4.814389
  H     -4.015448   -1.757570    5.098333
  H     -5.331982   -2.459566    3.090250
  H      4.724103    1.366408    0.913741
  H      5.793845    3.555443    0.378349
  H      4.773395    5.064508   -1.338103
  H      2.675337    4.371244   -2.515380
  H      1.596354    2.180557   -1.961758
  H      1.997789   -2.839423   -0.827035
  H      4.900859    0.260216   -1.672911
  H      6.251546   -1.364623   -2.992861
  H      3.374252   -4.479068   -2.110682
  H      5.500286   -3.742732   -3.210487
  H      4.081472   -2.100363    1.116945
  H      1.717455    1.304389    2.376404
  H      2.338921    0.854023    4.755956
  H      3.811124   -1.091676    5.320045
  H      4.679547   -2.565105    3.492624
  H     -0.073143   -1.801039   -0.912445
  H     -0.035696   -1.231505   -1.614805
  H     -0.002430    0.718155   -1.563089
  H      0.035829    1.263937    0.526471

----------------------------
CARTESIAN COORDINATES (A.U.)
----------------------------
  NO LB      ZA    FRAG     MASS         X           Y           Z
   0 Ru   16.0000*   0   101.070   -0.007291   -0.309705   -0.513754
   1 P    15.0000    0    30.974   -4.342152   -0.014402   -0.272468
   2 P    15.0000    0    30.974    4.322123   -0.033518   -0.295275
   3 C     6.0000    0    12.011   -5.502215   -1.132957    2.863855
   4 C     6.0000    0    12.011   -8.853401   -5.011045   -6.032363
   5 C     6.0000    0    12.011   -7.207606   -6.109853   -4.257644
   6 C     6.0000    0    12.011   -5.917016   -4.586938   -2.515122
   7 C     6.0000    0    12.011   -5.885512    3.134904   -0.472456
   8 C     6.0000    0    12.011   -4.463575    5.259113   -1.228343
   9 C     6.0000    0    12.011   -5.604635    7.653030   -1.386116
  10 C     6.0000    0    12.011   -8.170429    7.948201   -0.780268
  11 C     6.0000    0    12.011   -9.599319    5.845369   -0.004307
  12 C     6.0000    0    12.011   -8.466623    3.453514    0.152047
  13 C     6.0000    0    12.011    5.850278    3.059744   -0.952632
  14 C     6.0000    0    12.011   -4.102756   -0.400558    5.025645
  15 C     6.0000    0    12.011    4.772328    4.689028   -2.771261
  16 C     6.0000    0    12.011    5.914351    7.015733   -3.341489
  17 C     6.0000    0    12.011    8.138714    7.750853   -2.092715
  18 C     6.0000    0    12.011    9.222039    6.149830   -0.272200
  19 C     6.0000    0    12.011    8.090653    3.816302    0.294217
  20 C     6.0000    0    12.011    6.354590   -2.229765   -2.161824
  21 C     6.0000    0    12.011    5.560141   -4.770098   -2.426355
  22 C     6.0000    0    12.011    7.016035   -6.505142   -3.806492
  23 C     6.0000    0    12.011    9.270447   -5.724130   -4.972877
  24 C     6.0000    0    12.011   10.065987   -3.203197   -4.741406
  25 C     6.0000    0    12.011   -4.853429   -1.181780    7.446328
  26 C     6.0000    0    12.011    8.626953   -1.466856   -3.338772
  27 C     6.0000    0    12.011    5.406958   -0.688210    2.992670
  28 C     6.0000    0    12.011    4.480578    0.873021    4.963931
  29 C     6.0000    0    12.011    5.135575    0.383792    7.485519
  30 C     6.0000    0    12.011    6.701205   -1.678925    8.083642
  31 C     6.0000    0    12.011    7.618873   -3.242241    6.146402
  32 C     6.0000    0    12.011    6.984320   -2.752027    3.613856
  33 C     6.0000    0    12.011   -7.005606   -2.708208    7.746817
  34 C     6.0000    0    12.011   -8.401292   -3.453427    5.615518
  35 C     6.0000    0    12.011   -7.658659   -2.677033    3.186794
  36 C     6.0000    0    12.011   -6.279681   -1.933099   -2.492619
  37 C     6.0000    0    12.011   -7.937591   -0.849950   -4.282331
  38 C     6.0000    0    12.011   -9.206855   -2.383149   -6.043318
  39 H     1.0000    0     1.008   -2.454291    5.007200   -1.645904
  40 H     1.0000    0     1.008   -4.479012    9.288030   -1.968940
  41 H     1.0000    0     1.008   -9.056203    9.814092   -0.895530
  42 H     1.0000    0     1.008  -11.594819    6.072546    0.491588
  43 H     1.0000    0     1.008   -9.572984    1.824995    0.784767
  44 H     1.0000    0     1.008   -4.605590   -5.445458   -1.161959
  45 H     1.0000    0     1.008   -6.917840   -8.158411   -4.240795
  46 H     1.0000    0     1.008   -9.845755   -6.200819   -7.402447
  47 H     1.0000    0     1.008  -10.477367   -1.512603   -7.424759
  48 H     1.0000    0     1.008   -8.237329    1.194596   -4.291457
  49 H     1.0000    0     1.008   -8.734108   -3.292733    1.532120
  50 H     1.0000    0     1.008   -2.422657    0.786496    4.781852
  51 H     1.0000    0     1.008   -3.749954   -0.603187    9.097877
  52 H     1.0000    0     1.008   -7.588097   -3.321326    9.634453
  53 H     1.0000    0     1.008  -10.075986   -4.647906    5.839726
  54 H     1.0000    0     1.008    8.927261    2.582137    1.726720
  55 H     1.0000    0     1.008   10.948780    6.718814    0.714976
  56 H     1.0000    0     1.008    9.020409    9.570533   -2.528648
  57 H     1.0000    0     1.008    5.055654    8.260454   -4.753379
  58 H     1.0000    0     1.008    3.016672    4.120656   -3.707185
  59 H     1.0000    0     1.008    3.775274   -5.365732   -1.562870
  60 H     1.0000    0     1.008    9.261281    0.491737   -3.161344
  61 H     1.0000    0     1.008   11.813710   -2.578764   -5.655688
  62 H     1.0000    0     1.008    6.376412   -8.464212   -3.988611
  63 H     1.0000    0     1.008   10.394034   -7.072738   -6.066941
  64 H     1.0000    0     1.008    7.712864   -3.969111    2.110720
  65 H     1.0000    0     1.008    3.245520    2.464938    4.490753
  66 H     1.0000    0     1.008    4.419920    1.613870    8.987454
  67 H     1.0000    0     1.008    7.201981   -2.062969   10.053428
  68 H     1.0000    0     1.008    8.843062   -4.847346    6.600103
  69 H     1.0000    0     1.008   -0.138220   -3.403470   -1.724271
  70 H     1.0000    0     1.008   -0.067456   -2.327207   -3.051539
  71 H     1.0000    0     1.008   -0.004592    1.357116   -2.953810
  72 H     1.0000    0     1.008    0.067707    2.388495    0.994886
* core charge reduced due to ECP

--------------------------------
INTERNAL COORDINATES (ANGSTROEM)
--------------------------------
 Ru     0   0   0     0.000000000000     0.00000000     0.00000000
 P      1   0   0     2.302769142666     0.00000000     0.00000000
 P      1   2   0     2.298593421819   170.32266066     0.00000000
 C      2   1   3     1.865936075614   110.82520720   287.45078086
 C      2   1   3     4.688348828172   115.65233116   170.20377413
 C      5   2   1     1.406620994464    58.92282170    60.14447602
 C      6   5   2     1.402197534827   120.20149621     1.37782858
 C      2   1   3     1.858917840961   119.69208873    44.29035749
 C      8   2   1     1.410585881023   119.74902353    11.59623616
 C      9   8   2     1.405834356197   120.38491940   180.05586508
 C     10   9   8     1.403814458540   120.14046221     0.28057060
 C     11  10   9     1.406630923369   119.90488293     0.24861884
 C     12  11  10     1.402910177793   120.08422791   359.67538394
 C      3   1   2     1.858583734957   118.70173616   307.31506304
 C      4   2   1     1.416795386252   117.35079399    41.61180746
 C     14   3   1     1.412413114092   119.30257327   325.85419906
 C     16  14   3     1.404358258962   120.51680914   181.24929254
 C     17  16  14     1.404826350171   120.14995026   359.63753352
 C     18  17  16     1.405176583455   119.82636451     0.09046500
 C     19  18  17     1.404685755727   120.16160922     0.19739150
 C      3   1   2     1.866310291475   120.54251695   181.43963248
 C     21   3   1     1.415429225807   118.20339899   322.42689438
 C     22  21   3     1.403545664509   120.64439034   180.08849546
 C     23  22  21     1.405341892530   120.14069449   359.14393745
 C     24  23  22     1.404221763058   119.70734579     0.29925664
 C     15   4   2     1.403419630063   120.56088512   180.34697434
 C     25  24  23     1.405369621418   120.31402080     0.37274022
 C      3   1   2     1.864632797749   109.99749314    63.87593661
 C     28   3   1     1.418105006514   118.14571869   301.40983335
 C     29  28   3     1.402746093878   120.45064628   176.77553356
 C     30  29  28     1.406432444888   120.19010063   359.39380368
 C     31  30  29     1.403962812460   119.78467380     0.32181966
 C     32  31  30     1.405736124362   120.31546661     0.12921901
 C     26  15   4     1.405276122986   120.13194434     0.14068703
 C     34  26  15     1.404636727079   119.77861887     0.10675201
 C     35  34  26     1.405360255373   120.34403636   359.89498893
 C      7   6   5     1.417453531888   120.59740754     0.94131641
 C     37   7   6     1.412511414075   118.71788372   359.10157207
 C      5   2   1     1.403157116982    60.76607340   238.48078465
 H      9   8   2     1.094135530377   118.59154584   358.73744835
 H     10   9   8     1.094762269002   119.68239487   179.79124833
 H     11  10   9     1.094697266904   120.11723028   179.73646706
 H     12  11  10     1.094711496639   120.10795216   179.26126550
 H     13  12  11     1.094315235747   119.99688609   179.03101013
 H      7   6   5     1.095786002821   119.99388255   181.30807524
 H      6   5   2     1.094877362904   120.09521428   181.84592555
 H      5   2   1     1.094444898865   178.06340011   359.81994773
 H     39   5   2     1.094825254520   120.10799086   178.05449589
 H     38  37   7     1.093502661540   119.63978470   180.04548219
 H     36  35  34     1.093954462791   119.96362011   178.88102045
 H     15   4   2     1.096210081711   119.05584289     0.34228873
 H     26  15   4     1.094775530181   119.68905009   179.87834016
 H     34  26  15     1.094563037025   120.12387080   179.84475804
 H     35  34  26     1.094981310204   120.04096220   179.79804712
 H     20  19  18     1.094148809150   120.00696977   180.63737678
 H     19  18  17     1.094756625481   120.12175348   180.38170428
 H     18  17  16     1.094598719812   120.10680556   180.42897752
 H     17  16  14     1.094786268499   119.70327799   180.09302000
 H     16  14   3     1.094940383130   118.89472496     2.17778557
 H     22  21   3     1.095555096518   119.21317936     0.98349851
 H     27  25  24     1.093483106277   119.91467814   179.79570098
 H     25  24  23     1.094816701832   120.09517562   180.40967323
 H     23  22  21     1.094800861723   119.70556718   179.84866346
 H     24  23  22     1.094536498914   120.11262626   180.69693824
 H     33  32  31     1.093680852569   120.03259144   179.64976463
 H     29  28   3     1.095213556383   119.09237138   356.82601807
 H     30  29  28     1.094906140455   119.69127582   179.48519839
 H     31  30  29     1.094555874081   120.06855311   180.31589689
 H     32  31  30     1.094878444823   120.10966409   179.81397968
 H      1   2   8     1.759375090141    92.52789278   206.84120734
 H     70   1   2     0.905030841776    72.26289240    93.31241454
 H      1   2   8     1.563732045590    90.48224292   309.83630704
 H      1   2   8     1.636339117203    86.43934276    34.66979334

---------------------------
INTERNAL COORDINATES (A.U.)
---------------------------
 Ru     0   0   0     0.000000000000     0.00000000     0.00000000
 P      1   0   0     4.351603029283     0.00000000     0.00000000
 P      1   2   0     4.343712060471   170.32266066     0.00000000
 C      2   1   3     3.526108166314   110.82520720   287.45078086
 C      2   1   3     8.859695305536   115.65233116   170.20377413
 C      5   2   1     2.658128453760    58.92282170    60.14447602
 C      6   5   2     2.649769326482   120.20149621     1.37782858
 C      2   1   3     3.512845624876   119.69208873    44.29035749
 C      8   2   1     2.665621003510   119.74902353    11.59623616
 C      9   8   2     2.656641922871   120.38491940   180.05586508
 C     10   9   8     2.652824869479   120.14046221     0.28057060
 C     11  10   9     2.658147216672   119.90488293     0.24861884
 C     12  11  10     2.651116026519   120.08422791   359.67538394
 C      3   1   2     3.512214256028   118.70173616   307.31506304
 C      4   2   1     2.677355267819   117.35079399    41.61180746
 C     14   3   1     2.669073973592   119.30257327   325.85419906
 C     16  14   3     2.653852503348   120.51680914   181.24929254
 C     17  16  14     2.654737067539   120.14995026   359.63753352
 C     18  17  16     2.655398912530   119.82636451     0.09046500
 C     19  18  17     2.654471382543   120.16160922     0.19739150
 C      3   1   2     3.526815331807   120.54251695   181.43963248
 C     21   3   1     2.674773598723   118.20339899   322.42689438
 C     22  21   3     2.652316922374   120.64439034   180.08849546
 C     23  22  21     2.655711301409   120.14069449   359.14393745
 C     24  23  22     2.653594563471   119.70734579     0.29925664
 C     15   4   2     2.652078751788   120.56088512   180.34697434
 C     25  24  23     2.655763701412   120.31402080     0.37274022
 C      3   1   2     3.523645328072   109.99749314    63.87593661
 C     28   3   1     2.679830091455   118.14571869   301.40983335
 C     29  28   3     2.650805952858   120.45064628   176.77553356
 C     30  29  28     2.657772146700   120.19010063   359.39380368
 C     31  30  29     2.653105217760   119.78467380     0.32181966
 C     32  31  30     2.656456291605   120.31546661     0.12921901
 C     26  15   4     2.655587014982   120.13194434     0.14068703
 C     34  26  15     2.654378731827   119.77861887     0.10675201
 C     35  34  26     2.655746002152   120.34403636   359.89498893
 C      7   6   5     2.678598982827   120.59740754     0.94131641
 C     37   7   6     2.669259733640   118.71788372   359.10157207
 C      5   2   1     2.651582673959    60.76607340   238.48078465
 H      9   8   2     2.067616505806   118.59154584   358.73744835
 H     10   9   8     2.068800870164   119.68239487   179.79124833
 H     11  10   9     2.068678034000   120.11723028   179.73646706
 H     12  11  10     2.068704924303   120.10795216   179.26126550
 H     13  12  11     2.067956099738   119.99688609   179.03101013
 H      7   6   5     2.070735446716   119.99388255   181.30807524
 H      6   5   2     2.069018366119   120.09521428   181.84592555
 H      5   2   1     2.068201127521   178.06340011   359.81994773
 H     39   5   2     2.068919895543   120.10799086   178.05449589
 H     38  37   7     2.066420557025   119.63978470   180.04548219
 H     36  35  34     2.067274337657   119.96362011   178.88102045
 H     15   4   2     2.071536839677   119.05584289     0.34228873
 H     26  15   4     2.068825930161   119.68905009   179.87834016
 H     34  26  15     2.068424376290   120.12387080   179.84475804
 H     35  34  26     2.069214798049   120.04096220   179.79804712
 H     20  19  18     2.067641599049   120.00696977   180.63737678
 H     19  18  17     2.068790205454   120.12175348   180.38170428
 H     18  17  16     2.068491806985   120.10680556   180.42897752
 H     17  16  14     2.068846222640   119.70327799   180.09302000
 H     16  14   3     2.069137457087   118.89472496     2.17778557
 H     22  21   3     2.070299097040   119.21317936     0.98349851
 H     27  25  24     2.066383602934   119.91467814   179.79570098
 H     25  24  23     2.068903733305   120.09517562   180.40967323
 H     23  22  21     2.068873799838   119.70556718   179.84866346
 H     24  23  22     2.068374226528   120.11262626   180.69693824
 H     33  32  31     2.066757289268   120.03259144   179.64976463
 H     29  28   3     2.069653679723   119.09237138   356.82601807
 H     30  29  28     2.069072747808   119.69127582   179.48519839
 H     31  30  29     2.068410840289   120.06855311   180.31589689
 H     32  31  30     2.069020410649   120.10966409   179.81397968
 H      1   2   8     3.324737087210    92.52789278   206.84120734
 H     70   1   2     1.710260433708    72.26289240    93.31241454
 H      1   2   8     2.955025313001    90.48224292   309.83630704
 H      1   2   8     3.092232793736    86.43934276    34.66979334

---------------------
BASIS SET INFORMATION
---------------------
There are 4 groups of distinct atoms

 Group   1 Type Ru  : 9s8p7d3f1g contracted to 7s5p4d3f1g pattern {3111111/41111/4111/111/1}
 Group   2 Type P   : 20s14p4d2f1g contracted to 9s6p4d2f1g pattern {1031111111/821111/1111/11/1}
 Group   3 Type C   : 15s8p3d2f1g contracted to 7s4p3d2f1g pattern {8211111/5111/111/11/1}
 Group   4 Type H   : 7s3p2d1f contracted to 4s3p2d1f pattern {4111/111/11/1}

Atom   0Ru   basis set group =>   1
Atom   1P    basis set group =>   2
Atom   2P    basis set group =>   2
Atom   3C    basis set group =>   3
Atom   4C    basis set group =>   3
Atom   5C    basis set group =>   3
Atom   6C    basis set group =>   3
Atom   7C    basis set group =>   3
Atom   8C    basis set group =>   3
Atom   9C    basis set group =>   3
Atom  10C    basis set group =>   3
Atom  11C    basis set group =>   3
Atom  12C    basis set group =>   3
Atom  13C    basis set group =>   3
Atom  14C    basis set group =>   3
Atom  15C    basis set group =>   3
Atom  16C    basis set group =>   3
Atom  17C    basis set group =>   3
Atom  18C    basis set group =>   3
Atom  19C    basis set group =>   3
Atom  20C    basis set group =>   3
Atom  21C    basis set group =>   3
Atom  22C    basis set group =>   3
Atom  23C    basis set group =>   3
Atom  24C    basis set group =>   3
Atom  25C    basis set group =>   3
Atom  26C    basis set group =>   3
Atom  27C    basis set group =>   3
Atom  28C    basis set group =>   3
Atom  29C    basis set group =>   3
Atom  30C    basis set group =>   3
Atom  31C    basis set group =>   3
Atom  32C    basis set group =>   3
Atom  33C    basis set group =>   3
Atom  34C    basis set group =>   3
Atom  35C    basis set group =>   3
Atom  36C    basis set group =>   3
Atom  37C    basis set group =>   3
Atom  38C    basis set group =>   3
Atom  39H    basis set group =>   4
Atom  40H    basis set group =>   4
Atom  41H    basis set group =>   4
Atom  42H    basis set group =>   4
Atom  43H    basis set group =>   4
Atom  44H    basis set group =>   4
Atom  45H    basis set group =>   4
Atom  46H    basis set group =>   4
Atom  47H    basis set group =>   4
Atom  48H    basis set group =>   4
Atom  49H    basis set group =>   4
Atom  50H    basis set group =>   4
Atom  51H    basis set group =>   4
Atom  52H    basis set group =>   4
Atom  53H    basis set group =>   4
Atom  54H    basis set group =>   4
Atom  55H    basis set group =>   4
Atom  56H    basis set group =>   4
Atom  57H    basis set group =>   4
Atom  58H    basis set group =>   4
Atom  59H    basis set group =>   4
Atom  60H    basis set group =>   4
Atom  61H    basis set group =>   4
Atom  62H    basis set group =>   4
Atom  63H    basis set group =>   4
Atom  64H    basis set group =>   4
Atom  65H    basis set group =>   4
Atom  66H    basis set group =>   4
Atom  67H    basis set group =>   4
Atom  68H    basis set group =>   4
Atom  69H    basis set group =>   4
Atom  70H    basis set group =>   4
Atom  71H    basis set group =>   4
Atom  72H    basis set group =>   4
---------------------------------
AUXILIARY/J BASIS SET INFORMATION
---------------------------------
There are 4 groups of distinct atoms

 Group   1 Type Ru  : 11s5p5d3f3g contracted to 8s5p5d2f3g pattern {41111111/11111/11111/21/111}
 Group   2 Type P   : 14s5p5d2f1g contracted to 8s4p3d1f1g pattern {71111111/2111/311/2/1}
 Group   3 Type C   : 12s5p4d2f1g contracted to 6s4p3d1f1g pattern {711111/2111/211/2/1}
 Group   4 Type H   : 5s2p1d contracted to 3s1p1d pattern {311/2/1}

Atom   0Ru   basis set group =>   1
Atom   1P    basis set group =>   2
Atom   2P    basis set group =>   2
Atom   3C    basis set group =>   3
Atom   4C    basis set group =>   3
Atom   5C    basis set group =>   3
Atom   6C    basis set group =>   3
Atom   7C    basis set group =>   3
Atom   8C    basis set group =>   3
Atom   9C    basis set group =>   3
Atom  10C    basis set group =>   3
Atom  11C    basis set group =>   3
Atom  12C    basis set group =>   3
Atom  13C    basis set group =>   3
Atom  14C    basis set group =>   3
Atom  15C    basis set group =>   3
Atom  16C    basis set group =>   3
Atom  17C    basis set group =>   3
Atom  18C    basis set group =>   3
Atom  19C    basis set group =>   3
Atom  20C    basis set group =>   3
Atom  21C    basis set group =>   3
Atom  22C    basis set group =>   3
Atom  23C    basis set group =>   3
Atom  24C    basis set group =>   3
Atom  25C    basis set group =>   3
Atom  26C    basis set group =>   3
Atom  27C    basis set group =>   3
Atom  28C    basis set group =>   3
Atom  29C    basis set group =>   3
Atom  30C    basis set group =>   3
Atom  31C    basis set group =>   3
Atom  32C    basis set group =>   3
Atom  33C    basis set group =>   3
Atom  34C    basis set group =>   3
Atom  35C    basis set group =>   3
Atom  36C    basis set group =>   3
Atom  37C    basis set group =>   3
Atom  38C    basis set group =>   3
Atom  39H    basis set group =>   4
Atom  40H    basis set group =>   4
Atom  41H    basis set group =>   4
Atom  42H    basis set group =>   4
Atom  43H    basis set group =>   4
Atom  44H    basis set group =>   4
Atom  45H    basis set group =>   4
Atom  46H    basis set group =>   4
Atom  47H    basis set group =>   4
Atom  48H    basis set group =>   4
Atom  49H    basis set group =>   4
Atom  50H    basis set group =>   4
Atom  51H    basis set group =>   4
Atom  52H    basis set group =>   4
Atom  53H    basis set group =>   4
Atom  54H    basis set group =>   4
Atom  55H    basis set group =>   4
Atom  56H    basis set group =>   4
Atom  57H    basis set group =>   4
Atom  58H    basis set group =>   4
Atom  59H    basis set group =>   4
Atom  60H    basis set group =>   4
Atom  61H    basis set group =>   4
Atom  62H    basis set group =>   4
Atom  63H    basis set group =>   4
Atom  64H    basis set group =>   4
Atom  65H    basis set group =>   4
Atom  66H    basis set group =>   4
Atom  67H    basis set group =>   4
Atom  68H    basis set group =>   4
Atom  69H    basis set group =>   4
Atom  70H    basis set group =>   4
Atom  71H    basis set group =>   4
Atom  72H    basis set group =>   4
-------------------------
ECP PARAMETER INFORMATION
-------------------------

 Group 1, Type Ru ECP Def2-ECP (replacing 28 core electrons, lmax=3)

Atom   0Ru   ECP group =>   1

------------------------------------------------------------------------------
                             ORCA STARTUP CALCULATIONS
                           -- RI-GTO INTEGRALS CHOSEN --
------------------------------------------------------------------------------
------------------------------------------------------------------------------
                   ___                                                        
                  /   \      - P O W E R E D   B Y -                         
                 /     \                                                     
                 |  |  |   _    _      __       _____    __    __             
                 |  |  |  | |  | |    /  \     |  _  \  |  |  /  |          
                  \  \/   | |  | |   /    \    | | | |  |  | /  /          
                 / \  \   | |__| |  /  /\  \   | |_| |  |  |/  /          
                |  |  |   |  __  | /  /__\  \  |    /   |      \           
                |  |  |   | |  | | |   __   |  |    \   |  |\   \          
                \     /   | |  | | |  |  |  |  | |\  \  |  | \   \       
                 \___/    |_|  |_| |__|  |__|  |_| \__\ |__|  \__/        
                                                                              
                      - O R C A' S   B I G   F R I E N D -                    
                                      &                                       
                       - I N T E G R A L  F E E D E R -                       
                                                                              
 v1 FN, 2020, v2 2021, v3 2022-2024                                           
------------------------------------------------------------------------------


----------------------
SHARK INTEGRAL PACKAGE
----------------------

Number of atoms                             ...     73
Number of basis functions                   ...   3284
Number of shells                            ...   1016
Maximum angular momentum                    ...      4
Integral batch strategy                     ... SHARK/LIBINT Hybrid
RI-J (if used) integral strategy            ... SPLIT-RIJ (Revised 2003 algorithm where possible)
Printlevel                                  ...      1
Contraction scheme used                     ... SEGMENTED contraction
Prescreening option                         ... SCHWARTZ
   Thresh                                   ... 1.000e-12
   Tcut                                     ... 1.000e-14
   Tpresel                                  ... 1.000e-14 
Coulomb Range Separation                    ... NOT USED
Exchange Range Separation                   ... NOT USED
Multipole approximations                    ... NOT USED
Finite Nucleus Model                        ... NOT USED
CABS basis                                  ... NOT available
Auxiliary Coulomb fitting basis             ... AVAILABLE
   # of basis functions in Aux-J            ...   2329
   # of shells in Aux-J                     ...    767
   Maximum angular momentum in Aux-J        ...      4
Auxiliary J/K fitting basis                 ... NOT available
Auxiliary Correlation fitting basis         ... NOT available
Auxiliary 'external' fitting basis          ... NOT available

Checking pre-screening integrals            ... done (  0.0 sec) Dimension = 1016
   => SHARK Basis and OBASIS are compatible. Storing Pre-screening
Shell pair information
Shell pair cut-off parameter TPreSel        ...   1.0e-14
Total number of shell pairs                 ...    516636
Shell pairs after pre-screening             ...    258528
Total number of primitive shell pairs       ...   1276183
Primitive shell pairs kept                  ...    427779
          la=0 lb=0:  42187 shell pairs
          la=1 lb=0:  61080 shell pairs
          la=1 lb=1:  21798 shell pairs
          la=2 lb=0:  36016 shell pairs
          la=2 lb=1:  26763 shell pairs
          la=2 lb=2:   7789 shell pairs
          la=3 lb=0:  20006 shell pairs
          la=3 lb=1:  15193 shell pairs
          la=3 lb=2:   8430 shell pairs
          la=3 lb=3:   2314 shell pairs
          la=4 lb=0:   7003 shell pairs
          la=4 lb=1:   5230 shell pairs
          la=4 lb=2:   2912 shell pairs
          la=4 lb=3:   1529 shell pairs
          la=4 lb=4:    278 shell pairs

Checking whether 4 symmetric matrices of dimension 3284 fit in memory
:Max Core in MB      =   4096.00
 MB in use           =    310.26
 MB left             =   3785.74
 MB needed           =    164.61
 Data fit in memory  = YES
Calculating RI/J V-Matrix + Cholesky decomp.... done (  0.8 sec)
Calculating Nuclear repulsion               ... done (  0.0 sec) ENN=   4774.741462817796 Eh

Diagonalization of the overlap matrix:
Smallest eigenvalue                        ... 3.308e-06
Time for diagonalization                   ...   14.191 sec
Threshold for overlap eigenvalues          ... 1.000e-07
Number of eigenvalues below threshold      ... 0
Time for construction of square roots      ...   10.827 sec
Total time needed                          ...   25.162 sec

-------------------
DFT GRID GENERATION
-------------------

General Integration Accuracy     IntAcc      ... 4.959
Radial Grid Type                 RadialGrid  ... OptM3 with GC (2021)
Angular Grid (max. ang.)         AngularGrid ... 6 (Lebedev-590)
Angular grid pruning method      GridPruning ... 4 (adaptive)
Weight generation scheme         WeightScheme... mBecke (2022)
Basis function cutoff            BFCut       ... 1.0000e-12
Integration weight cutoff        WCut        ... 1.0000e-14
Partially contracted basis set               ... off
Rotationally invariant grid construction     ... off
Angular grids for H and He will be reduced by one unit
Diffuse basis detected: some atoms will have their outermost
                        angular grid increased by 1.

Total number of grid points                  ...   859637
Total number of batches                      ...    13471
Average number of points per batch           ...       63
Average number of grid points per atom       ...    11776
Grids setup in  42.1 sec
Initializing property integral containers    ... done (  0.0 sec)

SHARK setup successfully completed in 103.5 seconds

Maximum memory used throughout the entire STARTUP-calculation: 1379.7 MB
-------------------------------------------------------------------------------
                                 ORCA GUESS
                   Start orbitals & Density for SCF / CASSCF
-------------------------------------------------------------------------------

------------
SCF SETTINGS
------------
Hamiltonian:
 Density Functional     Method          .... DFT(GTOs)
 Exchange Functional    Exchange        .... B88
   X-Alpha parameter    XAlpha          ....  0.666667
   Becke's b parameter  XBeta           ....  0.004200
 Correlation Functional Correlation     .... P86
 LDA part of GGA corr.  LDAOpt          .... PW91-LDA
 Gradients option       PostSCFGGA      .... off
   NL short-range parameter             ....  4.400000
 RI-approximation to the Coulomb term is turned on
   Number of AuxJ basis functions       .... 2329


General Settings:
 Integral files         IntName         .... 15h_def2qzvp
 Hartree-Fock type      HFTyp           .... RHF
 Total Charge           Charge          ....    0
 Multiplicity           Mult            ....    1
 Number of Electrons    NEL             ....  296
 Basis Dimension        Dim             .... 3284
 Nuclear Repulsion      ENuc            ....   4774.7414628178 Eh

Convergence Acceleration:
 AO-DIIS                CNVDIIS         .... on
   Start iteration      DIISMaxIt       ....    12
   Startup error        DIISStart       ....  0.200000
   # of expansion vecs  DIISMaxEq       ....     5
   Bias factor          DIISBfac        ....   1.050
   Max. coefficient     DIISMaxC        ....  10.000
 MO-DIIS                CNVKDIIS        .... off
 Trust-Rad. Augm. Hess. CNVTRAH         .... auto
   Auto Start mean grad. ratio tolernc. ....  1.125000
   Auto Start start iteration           ....    50
   Auto Start num. interpolation iter.  ....    10
   Max. Number of Micro iterations      ....    24
   Max. Number of Macro iterations      .... Maxiter - #DIIS iter
   Number of Davidson start vectors     ....     2
   Converg. threshold    (grad. norm)   ....   2.000e-06
   Grad. Scal. Fac. for Micro threshold ....   0.100
   Minimum threshold for Micro iter.    ....   1.000e-02
   NR start threshold (gradient norm)   ....   1.000e-04
   Initial trust radius                 ....   0.400
   Minimum AH scaling param. (alpha)    ....   1.000
   Maximum AH scaling param. (alpha)    .... 1000.000
   Quad. conv. algorithm                .... NR
   White noise on init. David. guess    .... on
   Maximum white noise                  ....   0.010
   Pseudo random numbers                .... off
   Inactive MOs                         .... canonical
   Orbital update algorithm             .... Taylor
   Preconditioner                       .... Diag
   Full preconditioner red. dimension   ....   250
 SOSCF                 CNVSOSCF           .... on
   Start iteration     SOSCFMaxIt         ....   150
   Startup grad/error  SOSCFStart         ....  0.003300
   Hessian update      SOSCFHessUp        .... L-BFGS
   Autom. constraints  SOSCFAutoConstrain .... off
 Level Shifting         CNVShift        .... on
   Level shift para.    LevelShift      ....    0.2500
   Turn off err/grad.   ShiftErr        ....    0.0010
 Zerner damping         CNVZerner       .... off
 Static damping         CNVDamp         .... on
   Fraction old density DampFac         ....    0.7000
   Max. Damping (<1)    DampMax         ....    0.9800
   Min. Damping (>=0)   DampMin         ....    0.0000
   Turn off err/grad.   DampErr         ....    0.1000

SCF Procedure:
 Maximum # iterations   MaxIter         ....   125
 SCF integral mode      SCFMode         .... Direct
   Integral package                     .... SHARK and LIBINT hybrid scheme
 Reset frequency        DirectResetFreq ....    20
 Integral Threshold     Thresh          ....  1.000e-12 Eh
 Primitive CutOff       TCut            ....  1.000e-14 Eh

Convergence Tolerance:
 Convergence Check Mode ConvCheckMode   .... Total+1el-Energy
 Convergence forced     ConvForced      .... 0
 Energy Change          TolE            ....  1.000e-09 Eh
 1-El. energy change                    ....  1.000e-06 Eh
 Orbital Gradient       TolG            ....  2.000e-06
 Orbital Rotation angle TolX            ....  2.000e-06
 DIIS Error             TolErr          ....  1.000e-08

------------------------------
INITIAL GUESS: MODEL POTENTIAL
------------------------------
Loading Hartree-Fock densities                     ... done
Atomic calculation to generate a density for atom 0 (Ru with ECP)
  Multiplicity assumed   :    5
  Atomic configuration   : 1s2 2s2 2p6 3s2 3p6 4s2 3d10 4p6 5s2 4d6 
  Number of open shells  : 1
  Command: /home/ylvao/work/software/orca_6_1_1_linux_x86-64_shared_openmpi418/orca 15h_def2qzvp_atom44.inp "" > 15h_def2qzvp_atom44.out
Returned from the atomic calculation with res=0
Calculating cut-offs                               ... done
Initializing the effective Hamiltonian             ... done
Setting up the integral package (SHARK)            ... done
Starting the Coulomb interaction                   ... done (  97.3 sec)
Making the grid                                    ... done (   3.8 sec)
Mapping shells                                     ... done
Starting the XC term evaluation                    ... done (  29.3 sec)
  promolecular density results
     # of electrons  =    323.970062532
     EX              =   -369.637451492
     EC              =    -12.967992661
     EX+EC           =   -382.605444153
Transforming the Hamiltonian                       ... done (  13.9 sec)
Diagonalizing the Hamiltonian                      ... done (  12.7 sec)
Back transforming the eigenvectors                 ... done (   3.4 sec)
Now organizing SCF variables                       ... done
                      ------------------
                      INITIAL GUESS DONE ( 164.2 sec)
                      ------------------
             **** ENERGY FILE WAS UPDATED (15h_def2qzvp.en.tmp) ****
Finished Guess after 167.0 sec
Maximum memory used throughout the entire GUESS-calculation: 1136.3 MB

-------------------------------------------------------------------------------------------
                                      ORCA LEAN-SCF
                              memory conserving SCF solver
-------------------------------------------------------------------------------------------

----------------------------------------D-I-I-S--------------------------------------------
Iteration    Energy (Eh)           Delta-E    RMSDP     MaxDP     DIISErr   Damp  Time(sec)
-------------------------------------------------------------------------------------------
               ***  Starting incremental Fock matrix formation  ***
    1    -2169.0592688365568392     0.00e+00  2.00e-03  4.17e-01  7.35e-01  0.700 442.1
Warning: op=0 Small HOMO/LUMO gap (  -0.282) - skipping pre-diagonalization
         LevelShift set to 0.382 Eh
         Will do a full diagonalization
    2    -2169.8391392533876569    -7.80e-01  4.92e-04  1.41e-01  2.83e-01  0.700 510.9
                               ***Turning on AO-DIIS***
    3    -2170.1381150011529826    -2.99e-01  4.20e-04  1.32e-01  1.92e-01  0.700 419.7
    4    -2170.3304612499114228    -1.92e-01  3.38e-04  1.32e-01  1.39e-01  0.700 376.4
    5    -2170.4574736972508617    -1.27e-01  2.62e-04  1.15e-01  1.02e-01  0.700 369.4
    6    -2170.5435390773618565    -8.61e-02  2.06e-04  1.06e-01  7.83e-02  0.700 250.0
    7    -2170.6109449128471169    -6.74e-02  5.19e-04  2.81e-01  6.54e-02  0.000 227.4
    8    -2170.7764405114285182    -1.65e-01  6.12e-05  2.24e-02  9.65e-03  0.000 247.0
    9    -2170.7778778373367459    -1.44e-03  3.88e-05  1.65e-02  3.16e-02  0.000 239.2
                              *** Initializing SOSCF ***
---------------------------------------S-O-S-C-F--------------------------------------
Iteration    Energy (Eh)           Delta-E    RMSDP     MaxDP     MaxGrad    Time(sec)
--------------------------------------------------------------------------------------
   10    -2170.7802071770684051    -2.33e-03  1.60e-05  3.47e-03  1.85e-03   239.6
               *** Restarting incremental Fock matrix formation ***
   11    -2170.7804634195672406    -2.56e-04  2.64e-05  4.61e-03  1.88e-03   291.6
   12    -2170.7806951525844852    -2.32e-04  2.04e-05  6.01e-03  1.14e-03   242.7
   13    -2170.7804128947946083     2.82e-04  1.53e-05  5.57e-03  3.18e-03   288.5
   14    -2170.7807134489794407    -3.01e-04  1.38e-05  3.37e-03  4.13e-04   193.9
   15    -2170.7805951213258595     1.18e-04  9.23e-06  1.94e-03  8.51e-04   205.5
   16    -2170.7807339898172359    -1.39e-04  3.32e-06  7.57e-04  1.15e-04   213.4
   17    -2170.7807260701029008     7.92e-06  2.16e-06  5.28e-04  2.26e-04   189.0
   18    -2170.7807365015351024    -1.04e-05  1.12e-06  2.70e-04  5.43e-05   184.8
   19    -2170.7807350445564225     1.46e-06  7.44e-07  1.41e-04  1.32e-04   186.1
   20    -2170.7807367605073523    -1.72e-06  3.17e-07  7.12e-05  1.26e-05   188.5
   21    -2170.7807366583510884     1.02e-07  1.99e-07  3.29e-05  2.84e-05   171.9
   22    -2170.7807367843452084    -1.26e-07  1.69e-07  3.67e-05  6.11e-06   166.4
   23    -2170.7807367555342353     2.88e-08  1.11e-07  1.96e-05  1.62e-05   166.2
   24    -2170.7807367917212105    -3.62e-08  9.83e-08  4.21e-05  2.59e-06   153.7
   25    -2170.7807367871300812     4.59e-09  5.65e-08  1.76e-05  6.37e-06   152.3
   26    -2170.7807367933437490    -6.21e-09  7.98e-08  2.30e-05  5.04e-07   156.7
   27    -2170.7807367939731193    -6.29e-10  5.93e-08  3.25e-05  7.31e-07   143.0
                 **** Energy Check signals convergence ****

               *****************************************************
               *                     SUCCESS                       *
               *           SCF CONVERGED AFTER  27 CYCLES          *
               *****************************************************

             **** ENERGY FILE WAS UPDATED (15h_def2qzvp.en.tmp) ****

----------------
TOTAL SCF ENERGY
----------------

Total Energy       :      -2170.78073679064437 Eh          -59069.94691 eV

Components:
Nuclear Repulsion  :       4774.74146281779576 Eh          129927.32058 eV
Electronic Energy  :      -6945.52219960844013 Eh         -188997.26749 eV
One Electron Energy:     -12501.99137616113512 Eh         -340196.48060 eV
Two Electron Energy:       5556.46917655269499 Eh          151199.21311 eV

Virial components:
Potential Energy   :      -4271.68618468456043 Eh         -116238.49054 eV
Kinetic Energy     :       2100.90544789391606 Eh           57168.54363 eV
Virial Ratio       :          2.03325960669328

DFT components:
N(Alpha)           :      147.999981331141 electrons
N(Beta)            :      147.999981331141 electrons
N(Total)           :      295.999962662283 electrons
E(X)               :     -253.722467062175 Eh       
E(C)               :      -11.039787107695 Eh       
E(XC)              :     -264.762254169870 Eh       

---------------
SCF CONVERGENCE
---------------

  Last Energy change         ...    6.2937e-10  Tolerance :   1.0000e-09
  Last MAX-Density change    ...    3.2532e-05  Tolerance :   1.0000e-08
  Last RMS-Density change    ...    5.9332e-08  Tolerance :   1.0000e-09
  Last DIIS Error            ...    1.8532e-03  Tolerance :   1.0000e-08
  Last Orbital Gradient      ...    7.3134e-07  Tolerance :   2.0000e-06
  Last Orbital Rotation      ...    1.0548e-06  Tolerance :   2.0000e-06


----------------
ORBITAL ENERGIES
----------------

  NO   OCC          E(Eh)            E(eV) 
   0   2.0000     -76.359674     -2077.8524 
   1   2.0000     -76.359158     -2077.8383 
   2   2.0000      -9.919572      -269.9253 
   3   2.0000      -9.919009      -269.9100 
   4   2.0000      -9.918109      -269.8855 
   5   2.0000      -9.917968      -269.8816 
   6   2.0000      -9.916834      -269.8508 
   7   2.0000      -9.915294      -269.8089 
   8   2.0000      -9.912107      -269.7222 
   9   2.0000      -9.912083      -269.7215 
  10   2.0000      -9.911805      -269.7139 
  11   2.0000      -9.911796      -269.7137 
  12   2.0000      -9.911718      -269.7116 
  13   2.0000      -9.911714      -269.7115 
  14   2.0000      -9.911710      -269.7113 
  15   2.0000      -9.911482      -269.7051 
  16   2.0000      -9.911337      -269.7012 
  17   2.0000      -9.911304      -269.7003 
  18   2.0000      -9.911259      -269.6991 
  19   2.0000      -9.911154      -269.6962 
  20   2.0000      -9.911125      -269.6954 
  21   2.0000      -9.911112      -269.6951 
  22   2.0000      -9.910996      -269.6919 
  23   2.0000      -9.910843      -269.6878 
  24   2.0000      -9.910824      -269.6872 
  25   2.0000      -9.910813      -269.6869 
  26   2.0000      -9.910769      -269.6857 
  27   2.0000      -9.910763      -269.6856 
  28   2.0000      -9.910760      -269.6855 
  29   2.0000      -9.910618      -269.6816 
  30   2.0000      -9.910427      -269.6764 
  31   2.0000      -9.910358      -269.6745 
  32   2.0000      -9.910023      -269.6654 
  33   2.0000      -9.909969      -269.6640 
  34   2.0000      -9.909661      -269.6556 
  35   2.0000      -9.909301      -269.6458 
  36   2.0000      -9.908086      -269.6127 
  37   2.0000      -9.906495      -269.5694 
  38   2.0000      -6.324285      -172.0926 
  39   2.0000      -6.323855      -172.0809 
  40   2.0000      -4.540236      -123.5461 
  41   2.0000      -4.540143      -123.5436 
  42   2.0000      -4.539828      -123.5350 
  43   2.0000      -4.539655      -123.5303 
  44   2.0000      -4.537474      -123.4709 
  45   2.0000      -4.537059      -123.4597 
  46   2.0000      -2.833992       -77.1168 
  47   2.0000      -1.719014       -46.7768 
  48   2.0000      -1.716794       -46.7164 
  49   2.0000      -1.715352       -46.6771 
  50   2.0000      -0.785297       -21.3690 
  51   2.0000      -0.784651       -21.3515 
  52   2.0000      -0.777761       -21.1639 
  53   2.0000      -0.777480       -21.1563 
  54   2.0000      -0.777390       -21.1539 
  55   2.0000      -0.776444       -21.1281 
  56   2.0000      -0.704143       -19.1607 
  57   2.0000      -0.703310       -19.1380 
  58   2.0000      -0.680863       -18.5272 
  59   2.0000      -0.680447       -18.5159 
  60   2.0000      -0.678971       -18.4757 
  61   2.0000      -0.678846       -18.4723 
  62   2.0000      -0.678346       -18.4587 
  63   2.0000      -0.676663       -18.4129 
  64   2.0000      -0.674439       -18.3524 
  65   2.0000      -0.674126       -18.3439 
  66   2.0000      -0.673460       -18.3258 
  67   2.0000      -0.672751       -18.3065 
  68   2.0000      -0.594479       -16.1766 
  69   2.0000      -0.591972       -16.1084 
  70   2.0000      -0.552785       -15.0420 
  71   2.0000      -0.552290       -15.0286 
  72   2.0000      -0.550099       -14.9690 
  73   2.0000      -0.548882       -14.9358 
  74   2.0000      -0.548311       -14.9203 
  75   2.0000      -0.545814       -14.8524 
  76   2.0000      -0.539872       -14.6907 
  77   2.0000      -0.539730       -14.6868 
  78   2.0000      -0.538725       -14.6595 
  79   2.0000      -0.537504       -14.6262 
  80   2.0000      -0.508897       -13.8478 
  81   2.0000      -0.506248       -13.7757 
  82   2.0000      -0.468841       -12.7578 
  83   2.0000      -0.467978       -12.7343 
  84   2.0000      -0.467718       -12.7273 
  85   2.0000      -0.466434       -12.6923 
  86   2.0000      -0.451410       -12.2835 
  87   2.0000      -0.448902       -12.2152 
  88   2.0000      -0.423384       -11.5209 
  89   2.0000      -0.412373       -11.2212 
  90   2.0000      -0.411793       -11.2055 
  91   2.0000      -0.410464       -11.1693 
  92   2.0000      -0.409030       -11.1303 
  93   2.0000      -0.408060       -11.1039 
  94   2.0000      -0.406772       -11.0688 
  95   2.0000      -0.403515       -10.9802 
  96   2.0000      -0.403178       -10.9710 
  97   2.0000      -0.402963       -10.9652 
  98   2.0000      -0.401411       -10.9230 
  99   2.0000      -0.397661       -10.8209 
 100   2.0000      -0.396894       -10.8000 
 101   2.0000      -0.379182       -10.3181 
 102   2.0000      -0.378413       -10.2971 
 103   2.0000      -0.378039       -10.2870 
 104   2.0000      -0.377693       -10.2775 
 105   2.0000      -0.377504       -10.2724 
 106   2.0000      -0.375211       -10.2100 
 107   2.0000      -0.369399       -10.0519 
 108   2.0000      -0.368409       -10.0249 
 109   2.0000      -0.365091        -9.9346 
 110   2.0000      -0.363173        -9.8824 
 111   2.0000      -0.345831        -9.4105 
 112   2.0000      -0.338653        -9.2152 
 113   2.0000      -0.335570        -9.1313 
 114   2.0000      -0.333872        -9.0851 
 115   2.0000      -0.331360        -9.0168 
 116   2.0000      -0.329658        -8.9704 
 117   2.0000      -0.328833        -8.9480 
 118   2.0000      -0.326697        -8.8899 
 119   2.0000      -0.309450        -8.4206 
 120   2.0000      -0.307822        -8.3762 
 121   2.0000      -0.306989        -8.3536 
 122   2.0000      -0.306931        -8.3520 
 123   2.0000      -0.306125        -8.3301 
 124   2.0000      -0.304298        -8.2804 
 125   2.0000      -0.299361        -8.1460 
 126   2.0000      -0.293561        -7.9882 
 127   2.0000      -0.292925        -7.9709 
 128   2.0000      -0.290260        -7.8984 
 129   2.0000      -0.289152        -7.8682 
 130   2.0000      -0.274301        -7.4641 
 131   2.0000      -0.260341        -7.0842 
 132   2.0000      -0.244207        -6.6452 
 133   2.0000      -0.243490        -6.6257 
 134   2.0000      -0.241032        -6.5588 
 135   2.0000      -0.239340        -6.5128 
 136   2.0000      -0.238170        -6.4809 
 137   2.0000      -0.235801        -6.4165 
 138   2.0000      -0.234931        -6.3928 
 139   2.0000      -0.232963        -6.3392 
 140   2.0000      -0.231867        -6.3094 
 141   2.0000      -0.230540        -6.2733 
 142   2.0000      -0.228561        -6.2195 
 143   2.0000      -0.224864        -6.1189 
 144   2.0000      -0.210567        -5.7298 
 145   2.0000      -0.186056        -5.0628 
 146   2.0000      -0.178951        -4.8695 
 147   2.0000      -0.175527        -4.7763 
 148   0.0000      -0.086558        -2.3554 
 149   0.0000      -0.069220        -1.8836 
 150   0.0000      -0.066091        -1.7984 
 151   0.0000      -0.062493        -1.7005 
 152   0.0000      -0.059645        -1.6230 
 153   0.0000      -0.058568        -1.5937 
 154   0.0000      -0.055612        -1.5133 
 155   0.0000      -0.052929        -1.4403 
 156   0.0000      -0.050850        -1.3837 
 157   0.0000      -0.044925        -1.2225 
 158   0.0000      -0.044566        -1.2127 
*Only the first 10 virtual orbitals were printed.

                    ********************************
                    * MULLIKEN POPULATION ANALYSIS *
                    ********************************

-----------------------
MULLIKEN ATOMIC CHARGES
-----------------------
   0 Ru:   -0.129121
   1 P :   -0.239592
   2 P :   -0.203034
   3 C :    0.170849
   4 C :   -0.081225
   5 C :   -0.145684
   6 C :   -0.060772
   7 C :    0.250562
   8 C :   -0.099726
   9 C :   -0.151370
  10 C :   -0.077670
  11 C :   -0.162831
  12 C :   -0.058359
  13 C :    0.249921
  14 C :   -0.036777
  15 C :   -0.079147
  16 C :   -0.136026
  17 C :   -0.081015
  18 C :   -0.155918
  19 C :   -0.077510
  20 C :    0.146569
  21 C :   -0.097195
  22 C :   -0.141053
  23 C :   -0.076642
  24 C :   -0.152318
  25 C :   -0.145429
  26 C :   -0.062606
  27 C :    0.176107
  28 C :   -0.026465
  29 C :   -0.153069
  30 C :   -0.079540
  31 C :   -0.155424
  32 C :   -0.093216
  33 C :   -0.081534
  34 C :   -0.161103
  35 C :   -0.048562
  36 C :    0.221219
  37 C :   -0.067221
  38 C :   -0.155278
  39 H :    0.078706
  40 H :    0.086434
  41 H :    0.075572
  42 H :    0.087224
  43 H :    0.051453
  44 H :    0.056118
  45 H :    0.084321
  46 H :    0.075852
  47 H :    0.084607
  48 H :    0.065555
  49 H :    0.064273
  50 H :    0.047300
  51 H :    0.082221
  52 H :    0.075440
  53 H :    0.084904
  54 H :    0.077638
  55 H :    0.090980
  56 H :    0.076291
  57 H :    0.085883
  58 H :    0.075378
  59 H :    0.073896
  60 H :    0.078770
  61 H :    0.086262
  62 H :    0.086220
  63 H :    0.077422
  64 H :    0.073125
  65 H :    0.066810
  66 H :    0.081768
  67 H :    0.076029
  68 H :    0.083991
  69 H :   -0.000283
  70 H :    0.146894
  71 H :    0.030049
  72 H :   -0.009898
Sum of atomic charges:   -0.0000000

--------------------------------
MULLIKEN REDUCED ORBITAL CHARGES
--------------------------------
  0 Rus       :     2.018546  s :     2.018546
      pz      :     2.217504  p :     6.786607
      px      :     2.235891
      py      :     2.333212
      dz2     :     1.407902  d :     7.260783
      dxz     :     1.727120
      dyz     :     1.228117
      dx2y2   :     1.171686
      dxy     :     1.725958
      f0      :     0.004860  f :     0.062675
      f+1     :     0.008439
      f-1     :     0.006155
      f+2     :     0.019650
      f-2     :     0.000216
      f+3     :     0.013385
      f-3     :     0.009970
      g0      :     0.000038  g :     0.000510
      g+1     :     0.000022
      g-1     :     0.000087
      g+2     :     0.000108
      g-2     :     0.000003
      g+3     :     0.000019
      g-3     :     0.000098
      g+4     :     0.000091
      g-4     :     0.000043

  1 P s       :     5.832519  s :     5.832519
      pz      :     2.884829  p :     9.013929
      px      :     3.249528
      py      :     2.879572
      dz2     :     0.060942  d :     0.325328
      dxz     :     0.078505
      dyz     :     0.062622
      dx2y2   :     0.048999
      dxy     :     0.074260
      f0      :     0.009324  f :     0.062533
      f+1     :     0.008165
      f-1     :     0.006649
      f+2     :     0.010285
      f-2     :     0.005358
      f+3     :     0.008967
      f-3     :     0.013784
      g0      :     0.000468  g :     0.005283
      g+1     :     0.000745
      g-1     :     0.000515
      g+2     :     0.000494
      g-2     :     0.000609
      g+3     :     0.000616
      g-3     :     0.000359
      g+4     :     0.000675
      g-4     :     0.000803

  2 P s       :     5.869360  s :     5.869360
      pz      :     2.841622  p :     8.952383
      px      :     3.230874
      py      :     2.879887
      dz2     :     0.063186  d :     0.312980
      dxz     :     0.076396
      dyz     :     0.055135
      dx2y2   :     0.044122
      dxy     :     0.074140
      f0      :     0.008118  f :     0.063016
      f+1     :     0.008783
      f-1     :     0.008041
      f+2     :     0.009284
      f-2     :     0.005302
      f+3     :     0.009093
      f-3     :     0.014394
      g0      :     0.000577  g :     0.005294
      g+1     :     0.000788
      g-1     :     0.000464
      g+2     :     0.000419
      g-2     :     0.000495
      g+3     :     0.000653
      g-3     :     0.000361
      g+4     :     0.000738
      g-4     :     0.000800

  3 C s       :     3.373706  s :     3.373706
      pz      :     0.730938  p :     2.322950
      px      :     0.724298
      py      :     0.867714
      dz2     :     0.020691  d :     0.114074
      dxz     :     0.032620
      dyz     :     0.021740
      dx2y2   :     0.028375
      dxy     :     0.010647
      f0      :     0.005199  f :     0.017275
      f+1     :     0.002127
      f-1     :     0.002106
      f+2     :     0.001743
      f-2     :     0.003051
      f+3     :     0.002224
      f-3     :     0.000824
      g0      :     0.000138  g :     0.001147
      g+1     :     0.000177
      g-1     :     0.000091
      g+2     :     0.000168
      g-2     :     0.000173
      g+3     :     0.000058
      g-3     :     0.000112
      g+4     :     0.000104
      g-4     :     0.000125

  4 C s       :     3.320971  s :     3.320971
      pz      :     0.886426  p :     2.620882
      px      :     0.890566
      py      :     0.843891
      dz2     :     0.016780  d :     0.123788
      dxz     :     0.008120
      dyz     :     0.042857
      dx2y2   :     0.017046
      dxy     :     0.038985
      f0      :     0.002356  f :     0.014579
      f+1     :     0.001568
      f-1     :     0.000991
      f+2     :     0.003970
      f-2     :     0.000883
      f+3     :     0.003685
      f-3     :     0.001126
      g0      :     0.000051  g :     0.001004
      g+1     :     0.000107
      g-1     :     0.000133
      g+2     :     0.000102
      g-2     :     0.000092
      g+3     :     0.000111
      g-3     :     0.000128
      g+4     :     0.000116
      g-4     :     0.000164

  5 C s       :     3.332580  s :     3.332580
      pz      :     0.878644  p :     2.671425
      px      :     0.904877
      py      :     0.887903
      dz2     :     0.039514  d :     0.125984
      dxz     :     0.018501
      dyz     :     0.013668
      dx2y2   :     0.041062
      dxy     :     0.013240
      f0      :     0.001786  f :     0.014661
      f+1     :     0.002022
      f-1     :     0.002223
      f+2     :     0.003821
      f-2     :     0.001056
      f+3     :     0.002080
      f-3     :     0.001673
      g0      :     0.000037  g :     0.001033
      g+1     :     0.000141
      g-1     :     0.000123
      g+2     :     0.000119
      g-2     :     0.000170
      g+3     :     0.000176
      g-3     :     0.000173
      g+4     :     0.000042
      g-4     :     0.000051

  6 C s       :     3.387116  s :     3.387116
      pz      :     0.854007  p :     2.546501
      px      :     0.896510
      py      :     0.795985
      dz2     :     0.014857  d :     0.110287
      dxz     :     0.012956
      dyz     :     0.033101
      dx2y2   :     0.019070
      dxy     :     0.030303
      f0      :     0.002476  f :     0.015877
      f+1     :     0.001295
      f-1     :     0.001472
      f+2     :     0.004466
      f-2     :     0.000759
      f+3     :     0.003615
      f-3     :     0.001794
      g0      :     0.000048  g :     0.000990
      g+1     :     0.000067
      g-1     :     0.000175
      g+2     :     0.000106
      g-2     :     0.000081
      g+3     :     0.000085
      g-3     :     0.000152
      g+4     :     0.000125
      g-4     :     0.000152

  7 C s       :     3.328480  s :     3.328480
      pz      :     0.907635  p :     2.281348
      px      :     0.635594
      py      :     0.738118
      dz2     :     0.009525  d :     0.120995
      dxz     :     0.026391
      dyz     :     0.014747
      dx2y2   :     0.030064
      dxy     :     0.040268
      f0      :     0.001466  f :     0.017464
      f+1     :     0.001233
      f-1     :     0.001471
      f+2     :     0.002307
      f-2     :     0.001413
      f+3     :     0.002359
      f-3     :     0.007216
      g0      :     0.000101  g :     0.001151
      g+1     :     0.000078
      g-1     :     0.000043
      g+2     :     0.000090
      g-2     :     0.000095
      g+3     :     0.000182
      g-3     :     0.000097
      g+4     :     0.000246
      g-4     :     0.000220

  8 C s       :     3.407735  s :     3.407735
      pz      :     0.912010  p :     2.576614
      px      :     0.897243
      py      :     0.767361
      dz2     :     0.004883  d :     0.098802
      dxz     :     0.009437
      dyz     :     0.027325
      dx2y2   :     0.045278
      dxy     :     0.011879
      f0      :     0.001090  f :     0.015572
      f+1     :     0.000449
      f-1     :     0.001037
      f+2     :     0.001308
      f-2     :     0.002553
      f+3     :     0.001559
      f-3     :     0.007577
      g0      :     0.000080  g :     0.001003
      g+1     :     0.000049
      g-1     :     0.000111
      g+2     :     0.000034
      g-2     :     0.000118
      g+3     :     0.000143
      g-3     :     0.000053
      g+4     :     0.000230
      g-4     :     0.000183

  9 C s       :     3.352032  s :     3.352032
      pz      :     0.930559  p :     2.659553
      px      :     0.844604
      py      :     0.884391
      dz2     :     0.003319  d :     0.124068
      dxz     :     0.020283
      dyz     :     0.017707
      dx2y2   :     0.026664
      dxy     :     0.056095
      f0      :     0.001103  f :     0.014691
      f+1     :     0.001128
      f-1     :     0.000404
      f+2     :     0.002443
      f-2     :     0.001274
      f+3     :     0.001758
      f-3     :     0.006581
      g0      :     0.000071  g :     0.001026
      g+1     :     0.000079
      g-1     :     0.000088
      g+2     :     0.000112
      g-2     :     0.000040
      g+3     :     0.000129
      g-3     :     0.000048
      g+4     :     0.000241
      g-4     :     0.000218

 10 C s       :     3.324333  s :     3.324333
      pz      :     0.919141  p :     2.614691
      px      :     0.844864
      py      :     0.850686
      dz2     :     0.009549  d :     0.123073
      dxz     :     0.024303
      dyz     :     0.010015
      dx2y2   :     0.035718
      dxy     :     0.043488
      f0      :     0.000786  f :     0.014570
      f+1     :     0.001099
      f-1     :     0.000963
      f+2     :     0.002064
      f-2     :     0.001521
      f+3     :     0.001708
      f-3     :     0.006428
      g0      :     0.000097  g :     0.001003
      g+1     :     0.000075
      g-1     :     0.000045
      g+2     :     0.000086
      g-2     :     0.000083
      g+3     :     0.000131
      g-3     :     0.000093
      g+4     :     0.000189
      g-4     :     0.000204

 11 C s       :     3.339231  s :     3.339231
      pz      :     0.943335  p :     2.682117
      px      :     0.889956
      py      :     0.848826
      dz2     :     0.005314  d :     0.125822
      dxz     :     0.009036
      dyz     :     0.028244
      dx2y2   :     0.061309
      dxy     :     0.021918
      f0      :     0.001055  f :     0.014632
      f+1     :     0.000716
      f-1     :     0.001095
      f+2     :     0.001307
      f-2     :     0.002421
      f+3     :     0.001460
      f-3     :     0.006577
      g0      :     0.000076  g :     0.001029
      g+1     :     0.000048
      g-1     :     0.000113
      g+2     :     0.000037
      g-2     :     0.000122
      g+3     :     0.000138
      g-3     :     0.000059
      g+4     :     0.000239
      g-4     :     0.000198

 12 C s       :     3.396154  s :     3.396154
      pz      :     0.915917  p :     2.542146
      px      :     0.820729
      py      :     0.805499
      dz2     :     0.004672  d :     0.103243
      dxz     :     0.019205
      dyz     :     0.020528
      dx2y2   :     0.013544
      dxy     :     0.045294
      f0      :     0.001058  f :     0.015823
      f+1     :     0.001093
      f-1     :     0.000352
      f+2     :     0.002650
      f-2     :     0.001358
      f+3     :     0.002246
      f-3     :     0.007067
      g0      :     0.000073  g :     0.000993
      g+1     :     0.000082
      g-1     :     0.000095
      g+2     :     0.000108
      g-2     :     0.000040
      g+3     :     0.000120
[...]
      f-1     :     0.001173
      f+2     :     0.000453
      f-2     :     0.001911
      f+3     :     0.001665
      f-3     :     0.002180

 69 H s       :     0.772229  s :     0.772229
      pz      :     0.096301  p :     0.193433
      px      :     0.040213
      py      :     0.056919
      dz2     :     0.004359  d :     0.052363
      dxz     :     0.002771
      dyz     :     0.025522
      dx2y2   :     0.010800
      dxy     :     0.008910
      f0      :     0.000329  f :     0.003968
      f+1     :     0.000017
      f-1     :     0.000695
      f+2     :     0.001493
      f-2     :     0.000343
      f+3     :     0.000483
      f-3     :     0.000609

 70 H s       :     0.739249  s :     0.739249
      pz      :     0.074739  p :     0.215559
      px      :     0.040213
      py      :     0.100606
      dz2     :     0.013784  d :     0.062615
      dxz     :     0.007669
      dyz     :     0.029974
      dx2y2   :     0.005272
      dxy     :     0.005916
      f0      :     0.000531  f :     0.005178
      f+1     :     0.000266
      f-1     :     0.002214
      f+2     :     0.001031
      f-2     :     0.000645
      f+3     :     0.000215
      f-3     :     0.000275

 71 H s       :     0.841518  s :     0.841518
      pz      :     0.065454  p :     0.194683
      px      :     0.064915
      py      :     0.064314
      dz2     :     0.026277  d :     0.089279
      dxz     :     0.015796
      dyz     :     0.029462
      dx2y2   :     0.008684
      dxy     :     0.009060
      f0      :     0.001905  f :     0.010963
      f+1     :     0.001110
      f-1     :     0.004010
      f+2     :     0.001820
      f-2     :     0.001464
      f+3     :     0.000350
      f-3     :     0.000303

 72 H s       :     0.932269  s :     0.932269
      pz      :     0.039554  p :     0.139005
      px      :     0.049288
      py      :     0.050163
      dz2     :     0.009706  d :     0.064512
      dxz     :     0.004921
      dyz     :     0.020057
      dx2y2   :     0.016142
      dxy     :     0.013687
      f0      :     0.000760  f :     0.006953
      f+1     :     0.000110
      f-1     :     0.001363
      f+2     :     0.001801
      f-2     :     0.000796
      f+3     :     0.000942
      f-3     :     0.001181



                      *****************************
                      * MAYER POPULATION ANALYSIS *
                      *****************************

  NA   - Mulliken gross atomic population
  ZA   - Total nuclear charge
  QA   - Mulliken gross atomic charge
  VA   - Mayer's total valence
  BVA  - Mayer's bonded valence
  FA   - Mayer's free valence

  ATOM       NA         ZA         QA         VA         BVA        FA
  0 Ru    16.1291    16.0000    -0.1291     4.8533     4.8533     0.0000
  1 P     15.2396    15.0000    -0.2396     3.7668     3.7668     0.0000
  2 P     15.2030    15.0000    -0.2030     3.7188     3.7188     0.0000
  3 C      5.8292     6.0000     0.1708     3.4299     3.4299     0.0000
  4 C      6.0812     6.0000    -0.0812     3.8575     3.8575     0.0000
  5 C      6.1457     6.0000    -0.1457     3.8575     3.8575     0.0000
  6 C      6.0608     6.0000    -0.0608     3.6380     3.6380    -0.0000
  7 C      5.7494     6.0000     0.2506     3.3919     3.3919    -0.0000
  8 C      6.0997     6.0000    -0.0997     3.6930     3.6930     0.0000
  9 C      6.1514     6.0000    -0.1514     3.8368     3.8368     0.0000
 10 C      6.0777     6.0000    -0.0777     3.8500     3.8500     0.0000
 11 C      6.1628     6.0000    -0.1628     3.8695     3.8695     0.0000
 12 C      6.0584     6.0000    -0.0584     3.6517     3.6517    -0.0000
 13 C      5.7501     6.0000     0.2499     3.3444     3.3444    -0.0000
 14 C      6.0368     6.0000    -0.0368     3.6214     3.6214     0.0000
 15 C      6.0791     6.0000    -0.0791     3.6830     3.6830    -0.0000
 16 C      6.1360     6.0000    -0.1360     3.8319     3.8319    -0.0000
 17 C      6.0810     6.0000    -0.0810     3.8559     3.8559    -0.0000
 18 C      6.1559     6.0000    -0.1559     3.8604     3.8604    -0.0000
 19 C      6.0775     6.0000    -0.0775     3.6388     3.6388    -0.0000
 20 C      5.8534     6.0000     0.1466     3.4926     3.4926    -0.0000
 21 C      6.0972     6.0000    -0.0972     3.6747     3.6747     0.0000
 22 C      6.1411     6.0000    -0.1411     3.8547     3.8547     0.0000
 23 C      6.0766     6.0000    -0.0766     3.8475     3.8475     0.0000
 24 C      6.1523     6.0000    -0.1523     3.8339     3.8339    -0.0000
 25 C      6.1454     6.0000    -0.1454     3.8366     3.8366     0.0000
 26 C      6.0626     6.0000    -0.0626     3.6810     3.6810     0.0000
 27 C      5.8239     6.0000     0.1761     3.5161     3.5161    -0.0000
 28 C      6.0265     6.0000    -0.0265     3.6162     3.6162    -0.0000
 29 C      6.1531     6.0000    -0.1531     3.8571     3.8571     0.0000
 30 C      6.0795     6.0000    -0.0795     3.8494     3.8494     0.0000
 31 C      6.1554     6.0000    -0.1554     3.8385     3.8385    -0.0000
 32 C      6.0932     6.0000    -0.0932     3.6839     3.6839    -0.0000
 33 C      6.0815     6.0000    -0.0815     3.8478     3.8478     0.0000
 34 C      6.1611     6.0000    -0.1611     3.8657     3.8657     0.0000
 35 C      6.0486     6.0000    -0.0486     3.6228     3.6228     0.0000
 36 C      5.7788     6.0000     0.2212     3.4244     3.4244    -0.0000
 37 C      6.0672     6.0000    -0.0672     3.6468     3.6468    -0.0000
 38 C      6.1553     6.0000    -0.1553     3.8425     3.8425     0.0000
 39 H      0.9213     1.0000     0.0787     1.0270     1.0270    -0.0000
 40 H      0.9136     1.0000     0.0864     0.9952     0.9952    -0.0000
 41 H      0.9244     1.0000     0.0756     0.9983     0.9983    -0.0000
 42 H      0.9128     1.0000     0.0872     0.9941     0.9941    -0.0000
 43 H      0.9485     1.0000     0.0515     1.0387     1.0387     0.0000
 44 H      0.9439     1.0000     0.0561     1.0179     1.0179     0.0000
 45 H      0.9157     1.0000     0.0843     0.9974     0.9974    -0.0000
 46 H      0.9241     1.0000     0.0759     0.9990     0.9990     0.0000
 47 H      0.9154     1.0000     0.0846     0.9965     0.9965     0.0000
 48 H      0.9344     1.0000     0.0656     1.0261     1.0261     0.0000
 49 H      0.9357     1.0000     0.0643     1.0190     1.0190     0.0000
 50 H      0.9527     1.0000     0.0473     1.0426     1.0426     0.0000
 51 H      0.9178     1.0000     0.0822     0.9961     0.9961     0.0000
 52 H      0.9246     1.0000     0.0754     0.9988     0.9988     0.0000
 53 H      0.9151     1.0000     0.0849     0.9960     0.9960    -0.0000
 54 H      0.9224     1.0000     0.0776     1.0244     1.0244    -0.0000
 55 H      0.9090     1.0000     0.0910     0.9930     0.9930    -0.0000
 56 H      0.9237     1.0000     0.0763     0.9985     0.9985    -0.0000
 57 H      0.9141     1.0000     0.0859     0.9942     0.9942    -0.0000
 58 H      0.9246     1.0000     0.0754     1.0260     1.0260    -0.0000
 59 H      0.9261     1.0000     0.0739     1.0042     1.0042    -0.0000
 60 H      0.9212     1.0000     0.0788     1.0209     1.0209     0.0000
 61 H      0.9137     1.0000     0.0863     0.9949     0.9949    -0.0000
 62 H      0.9138     1.0000     0.0862     0.9959     0.9959     0.0000
 63 H      0.9226     1.0000     0.0774     0.9986     0.9986     0.0000
 64 H      0.9269     1.0000     0.0731     1.0265     1.0265    -0.0000
 65 H      0.9332     1.0000     0.0668     1.0316     1.0316    -0.0000
 66 H      0.9182     1.0000     0.0818     0.9975     0.9975    -0.0000
 67 H      0.9240     1.0000     0.0760     0.9984     0.9984     0.0000
 68 H      0.9160     1.0000     0.0840     0.9959     0.9959    -0.0000
 69 H      1.0003     1.0000    -0.0003     1.1046     1.1046    -0.0000
 70 H      0.8531     1.0000     0.1469     1.0277     1.0277    -0.0000
 71 H      0.9700     1.0000     0.0300     1.0815     1.0815    -0.0000
 72 H      1.0099     1.0000    -0.0099     1.0748     1.0748    -0.0000

  Mayer bond orders larger than 0.100000
B(  0-Ru,  1-P ) :   0.8411 B(  0-Ru,  2-P ) :   0.8843 B(  0-Ru, 69-H ) :   0.5944 
B(  0-Ru, 70-H ) :   0.5345 B(  0-Ru, 71-H ) :   0.8004 B(  0-Ru, 72-H ) :   0.7314 
B(  1-P ,  3-C ) :   0.8361 B(  1-P ,  7-C ) :   0.8695 B(  1-P , 36-C ) :   0.8389 
B(  1-P , 71-H ) :   0.1214 B(  1-P , 72-H ) :   0.1416 B(  2-P , 13-C ) :   0.8032 
B(  2-P , 20-C ) :   0.8278 B(  2-P , 27-C ) :   0.8423 B(  2-P , 71-H ) :   0.1200 
B(  2-P , 72-H ) :   0.1562 B(  3-C , 14-C ) :   1.1634 B(  3-C , 35-C ) :   1.1584 
B(  4-C ,  5-C ) :   1.3465 B(  4-C , 38-C ) :   1.3569 B(  4-C , 46-H ) :   0.9394 
B(  5-C ,  6-C ) :   1.3351 B(  5-C , 45-H ) :   0.9379 B(  6-C , 36-C ) :   1.1555 
B(  6-C , 44-H ) :   0.9504 B(  7-C ,  8-C ) :   1.1674 B(  7-C , 12-C ) :   1.1367 
B(  8-C ,  9-C ) :   1.3371 B(  8-C , 39-H ) :   0.9460 B(  9-C , 10-C ) :   1.3519 
B(  9-C , 40-H ) :   0.9396 B( 10-C , 11-C ) :   1.3516 B( 10-C , 41-H ) :   0.9384 
B( 11-C , 12-C ) :   1.3441 B( 11-C , 42-H ) :   0.9346 B( 12-C , 43-H ) :   0.9513 
B( 13-C , 15-C ) :   1.1971 B( 13-C , 19-C ) :   1.1455 B( 14-C , 25-C ) :   1.3399 
B( 14-C , 50-H ) :   0.9351 B( 15-C , 16-C ) :   1.3328 B( 15-C , 58-H ) :   0.9354 
B( 16-C , 17-C ) :   1.3459 B( 16-C , 57-H ) :   0.9391 B( 17-C , 18-C ) :   1.3567 
B( 17-C , 56-H ) :   0.9381 B( 18-C , 19-C ) :   1.3450 B( 18-C , 55-H ) :   0.9341 
B( 19-C , 54-H ) :   0.9422 B( 20-C , 21-C ) :   1.1661 B( 20-C , 26-C ) :   1.1916 
B( 21-C , 22-C ) :   1.3434 B( 21-C , 59-H ) :   0.9431 B( 22-C , 23-C ) :   1.3474 
B( 22-C , 62-H ) :   0.9384 B( 23-C , 24-C ) :   1.3480 B( 23-C , 63-H ) :   0.9392 
B( 24-C , 26-C ) :   1.3290 B( 24-C , 61-H ) :   0.9389 B( 25-C , 33-C ) :   1.3381 
B( 25-C , 51-H ) :   0.9397 B( 26-C , 60-H ) :   0.9380 B( 27-C , 28-C ) :   1.1862 
B( 27-C , 32-C ) :   1.2004 B( 28-C , 29-C ) :   1.3287 B( 28-C , 65-H ) :   0.9291 
B( 29-C , 30-C ) :   1.3422 B( 29-C , 66-H ) :   0.9419 B( 30-C , 31-C ) :   1.3527 
B( 30-C , 67-H ) :   0.9389 B( 31-C , 32-C ) :   1.3294 B( 31-C , 68-H ) :   0.9385 
B( 32-C , 64-H ) :   0.9378 B( 33-C , 34-C ) :   1.3602 B( 33-C , 52-H ) :   0.9388 
B( 34-C , 35-C ) :   1.3353 B( 34-C , 53-H ) :   0.9377 B( 35-C , 49-H ) :   0.9392 
B( 36-C , 37-C ) :   1.1703 B( 37-C , 38-C ) :   1.3282 B( 37-C , 48-H ) :   0.9434 
B( 38-C , 47-H ) :   0.9399 B( 69-H , 70-H ) :   0.4623 

-------
TIMINGS
-------

Total SCF time: 0 days 1 hours 53 min 2 sec 

Total time                  ....    6782.323 sec
Sum of individual times     ....    6712.534 sec  ( 99.0%)

SCF preparation             ....       3.668 sec  (  0.1%)
Fock matrix formation       ....    5960.318 sec  ( 87.9%)
  Startup                   ....       2.068 sec  (  0.0% of F)
  Split-RI-J                ....    2575.047 sec  ( 43.2% of F)
  XC integration            ....    3489.035 sec  ( 58.5% of F)
    XC Preparation          ....       0.000 sec  (  0.0% of XC)
    Basis function eval.    ....     516.069 sec  ( 14.8% of XC)
    Density eval.           ....    1497.229 sec  ( 42.9% of XC)
    XC-Functional eval.     ....      13.149 sec  (  0.4% of XC)
    XC-Potential eval.      ....    1443.983 sec  ( 41.4% of XC)
Diagonalization             ....       0.000 sec  (  0.0%)
Density matrix formation    ....      16.164 sec  (  0.2%)
Total Energy calculation    ....       4.123 sec  (  0.1%)
Population analysis         ....      12.122 sec  (  0.2%)
Orbital Transformation      ....      84.798 sec  (  1.3%)
Orbital Orthonormalization  ....       0.000 sec  (  0.0%)
DIIS solution               ....     377.762 sec  (  5.6%)
SOSCF solution              ....     253.581 sec  (  3.7%)
Finished LeanSCF after 6782.6 sec

Maximum memory used throughout the entire LEANSCF-calculation: 1395.5 MB

-------------------------   --------------------
FINAL SINGLE POINT ENERGY     -2170.780736790644
-------------------------   --------------------


------------------------------------------------------------------------------
                              ORCA PROPERTY CALCULATIONS
------------------------------------------------------------------------------

GBWName                                 ... 15h_def2qzvp.gbw
Number of atoms                         ...     73
Number of basis functions               ...   3284
Max core memory                         ...   4096 MB

Electric properties:
Dipole moment                           ... YES
Quadrupole moment                       ...  NO
Static polarizability (Dipole/Dipole)   ...  NO
Static polarizability (Dipole/Quad.)    ...  NO
Static polarizability (Quad./Quad.)     ...  NO
Static polarizability (Velocity)        ...  NO
Static hyperpolarizability              ...  NO

Atomic electric properties:
Dipole moment                           ...  NO
Quadrupole moment                       ...  NO
Static polarizability                   ...  NO

Choice of electric origin               ... Center of mass
Position of electric origin             ...    -0.000272    -0.006907    -0.010907

General magnetic properties:
Magnetizability                         ...  NO

EPR properties:
g-Tensor (aka g-matrix)                 ...  NO
Zero-Field splitting spin-orbit         ...  NO
Zero-field splitting spin-spin          ...  NO
Hyperfine couplings                     ...  NO (   0 nuclei)
Quadrupole couplings                    ...  NO (   0 nuclei)
Contact density                         ...  NO (   0 nuclei)

NMR properties:
Chemical shifts                         ...  NO (   0 nuclei)
Spin-rotation constants                 ...  NO (   0 nuclei)
Spin-spin couplings                     ...  NO (   0 nuclei,    0 pairs)

Choice of magnetic origin               ... GIAO
Position of magnetic origin             ...     0.000000     0.000000     0.000000

Properties with geometric perturbations:
SCF Hessian                             ...  NO
IR spectrum                             ...  NO
VCD spectrum                            ...  NO
X-ray spectroscopy properties:
SCF XES/XAS/RIXS spectra                ...  NO

SCF SOC stabilization energy            ...  NO
Diagonal Born-Oppenheimer correction    ...  NO

-------------
DIPOLE MOMENT
-------------

Method             : SCF
Type of density    : Electron Density
Multiplicity       :   1
Irrep              :   0
Energy             : -2170.7807367906443687 Eh
Basis              : AO
                                X                 Y                 Z
Electronic contribution:     -0.263744662     -10.957267394     -17.346893584
Nuclear contribution   :      0.284792239      10.716196757      17.613675095
                        -----------------------------------------
Total Dipole Moment    :      0.021047577      -0.241070637       0.266781511
                        -----------------------------------------
Magnitude (a.u.)       :      0.360181104
Magnitude (Debye)      :      0.915507609



--------------------
Rotational spectrum 
--------------------
 
Rotational constants in cm-1:             0.003492             0.001797             0.001775 
Rotational constants in MHz :           104.698094            53.862021            53.214998 

Dipole components along the rotational axes: 
x,y,z [a.u.] :     0.020974    -0.240073    -0.267686 
x,y,z [Debye]:     0.053311    -0.610216    -0.680403 

 

Dipole moment calculation done in   0.5 sec 

Maximum memory used throughout the entire PROP-calculation: 574.6 MB

--------------------------------
SUGGESTED CITATIONS FOR THIS RUN
--------------------------------

Below you find a list of papers that are relevant to this ORCA run
We neither can nor want to force you to cite these papers, but we appreciate if you do
You receive ORCA, which is the product of decades of hard work by many enthusiastic individuals, for free
The only thing we kindly ask in return is that you cite our papers,
We deeply appreciate it, if you show your appreciation for ORCA by not just citing the generic ORCA reference.

Please note that relegating all ORCA citations to the supporting information does *not* help us.
SI sections are not indexed - citations you put there will not count into any citation statistics
But we need these citations in order to attract the funding resources that allow us to do what we are doing

Therefore, if you are a happy ORCA user, please consider citing a few of the papers listed below in the main body of your paper

In addition to the list printed below, the program has created the file 15h_def2qzvp.bibtex that contains the list in bibtex format
You can import this file easily into all common literature databanks and citation aid programs

It goes without saying that in many instances, there are alternative algorithms to achieve similar
results as the ones you have gotten from ORCA. It is, of course, also the case that in some instances
ORCA just re-implements algorithms worked out by others. We are fully aware of that and we are also
fully appreciative of our colleagues work. Hence this citation list should not be read as indicating
that the listed papers, which are focused on our own work, are the only ones worth citing. It simply
meant to make it easier for users to cite ORCA specific papers. It is not a substitute for doing your
own literature research and citing the relevant literature in a scientifically appropriate manner.

List of essential papers. We consider these as the minimum necessary citations

  1. Neese, F.
     Software update: the ORCA program system, version 6.0
     WIRES Comput. Molec. Sci. 2025 15(1), e70019
     doi.org/10.1002/wcms.70019

List of papers to cite with high priority. The work reported in these papers was absolutely
necessary for this run to complete.
Our perspective: the developers of density functionals and basis sets usually get cited in chemistry papers
Good! But without the algorithms to do something with them, the functionals or basis sets would not do anything.
Hence, in our opinion, the algorithm design and method developments papers are equally worthy of getting cited

  1. Neese, F.
     An improvement of the resolution of the identity approximation for the formation of the Coulomb matrix
     J. Comp. Chem. 2003 24(14), 1740-1747
     doi.org/10.1002/jcc.10318
  2. Neese, F.
     The SHARK Integral Generation and Digestion System
     J. Comp. Chem. 2022 44(3), 381
     doi.org/10.1002/jcc.26942

List of suggested additional citations. These are papers that are important in the 'surrounding' of 
of this run, or papers that preceded the highly important papers. If you like your results we are grateful for a citation.

  1. Neese, F.
     The ORCA program system
     WIRES Comput. Molec. Sci. 2012 2(1), 73-78
     doi.org/10.1002/wcms.81
  2. Neese, F.
     Software update: the ORCA program system, version 4.0
     WIRES Comput. Molec. Sci. 2018 8(1), 1-6
     doi.org/10.1002/wcms.1327
  3. Neese, F.; Wennmohs, F.; Becker, U.; Riplinger, C.
     The ORCA quantum chemistry program package
     J. Chem. Phys. 2020 152(22), 224108
     doi.org/10.1063/5.0004608
  4. Neese, F.
     Software update: The ORCA program system—Version 5.0
     WIRES Comput. Molec. Sci. 2022 12(1), e1606
     doi.org/10.1002/wcms.1606

List of optional additional citations

  1. Neese, F.
     Approximate second-order SCF convergence for spin unrestricted wavefunctions
     Chem. Phys. Lett. 2000 325(1-3), 93-98
     doi.org/10.1016/s0009-2614(00)00662-x

Timings for individual modules:

Sum of individual times          ...     7054.969 sec (= 117.583 min)
Startup calculation              ...      103.812 sec (=   1.730 min)   1.5 %
SCF iterations                   ...     6949.854 sec (= 115.831 min)  98.5 %
Property calculations            ...        1.303 sec (=   0.022 min)   0.0 %
                             ****ORCA TERMINATED NORMALLY****
TOTAL RUN TIME: 0 days 1 hours 57 minutes 35 seconds 415 msec
