
                                 *****************
                                 * O   R   C   A *
                                 *****************

                                            #,                                       
                                            ###                                      
                                            ####                                     
                                            #####                                    
                                            ######                                   
                                           ########,                                 
                                     ,,################,,,,,                         
                               ,,#################################,,                 
                          ,,##########################################,,             
                       ,#########################################, ''#####,          
                    ,#############################################,,   '####,        
                  ,##################################################,,,,####,       
                ,###########''''           ''''###############################       
              ,#####''   ,,,,##########,,,,          '''####'''          '####       
            ,##' ,,,,###########################,,,                        '##       
           ' ,,###''''                  '''############,,,                           
         ,,##''                                '''############,,,,        ,,,,,,###''
      ,#''                                            '''#######################'''  
     '                                                          ''''####''''         
             ,#######,   #######,   ,#######,      ##                                
            ,#'     '#,  ##    ##  ,#'     '#,    #''#        ,####,    ,#,          
            ##       ##  ##   ,#'  ##            #'  '#       #'       ,# #          
            ##       ##  #######   ##           ,######,      #####,      #          
            '#,     ,#'  ##    ##  '#,     ,#' ,#      #,     #,   #      #          
             '#######'   ##     ##  '#######'  #'      '#     '####' #    #          



                #########################################################
                #                        -***-                          #
                #          Department of theory and spectroscopy        #
                #                                                       #
                #                      Frank Neese                      #
                #                                                       #
                #     Directorship, Architecture, Infrastructure        #
                #                    SHARK, DRIVERS                     #
                #        Core code/Algorithms in most modules           #
                #                                                       #
                #        Max Planck Institute fuer Kohlenforschung      #
                #                Kaiser Wilhelm Platz 1                 #
                #                 D-45470 Muelheim/Ruhr                 #
                #                      Germany                          #
                #                                                       #
                #                  All rights reserved                  #
                #                        -***-                          #
                #########################################################


                         Program Version 6.1.1  -  RELEASE   -
                                (GIT: $487d211c$)
                          ($2025-11-21 10:33:24 +0100$)


 With contributions from (in alphabetic order):
[Max-Planck-Institut fuer Kohlenforschung]                               
  Daniel Aravena         : Magnetic Suceptibility                        
  Michael Atanasov       : Ab Initio Ligand Field Theory (pilot matlab implementation)
  Alexander A. Auer      : GIAO ZORA, VPT2 properties, NMR spectrum      
  Ute Becker             : All parallelization in ORCA, NUMFREQ, NUMCALC 
  Giovanni Bistoni       : ED, misc. LED, open-shell LED, HFLD           
  Dmytro Bykov           : pre 5.0 version of the SCF Hessian            
  Marcos Casanova-Páez   : Triplet and SCS-CIS(D). UHF-(DLPNO)-IP/EA/STEOM-CCSD. UHF-CVS-IP/STEOM-CCSD   
  Vijay G. Chilkuri      : MRCI spin determinant printing, contributions to CSF-ICE 
  Pauline Colinet        : FMM embedding                                 
  Dipayan Datta          : RHF DLPNO-CCSD density                        
  Achintya Kumar Dutta   : EOM-CC, STEOM-CC                              
  Nicolas Foglia         : Exact transition moments, OPA infrastructure, MCD improvements    
  Dmitry Ganyushin       : Spin-Orbit,Spin-Spin,Magnetic field MRCI      
  Miquel Garcia-Rates    : C-PCM and meta-GGA Hessian, CCSD/C-PCM, Gaussian charge scheme 
  Tiago L. C. Gouveia    : GS-ROHF, GS-ROCIS                             
  Yang Guo               : DLPNO-NEVPT2, F12-NEVPT2, CIM, IAO-localization        
  Andreas Hansen         : Spin unrestricted coupled pair/coupled cluster methods 
  Ingolf Harden          : AUTO-CI MPn and infrastructure                
  Benjamin Helmich-Paris : MC-RPA, TRAH-(SCF,CASSCF), AVAS, COSX integrals, SCF dyn. polar., MC-PDFT, srDFT 
  Lee Huntington         : MR-EOM, pCC                                   
  Robert Izsak           : Overlap fitted RIJCOSX, COSX-SCS-MP3, EOM     
  Riya Kayal             : Wick's Theorem for AUTO-CI, AUTO-CI UHF-CCSDT 
  Emily Kempfer          : AUTO-CI RHF CISDT and CCSDT, approximate NEVPT4
  Christian Kollmar      : KDIIS, OOCD, Brueckner-CCSD(T), CCSD density, CASPT2, CASPT2-K, improved NEVPT2 
  Axel Koslowski         : Symmetry handling                             
  Simone Kossmann        : meta-GGA functionals, TD-DFT gradient, OOMP2, (MP2 Hessian; deprecated post 5.0) 
  Lucas Lang             : DCDCAS, Hyperfine gauge corrections, ICE-SOC+SSC
  Marvin Lechner         : AUTO-CI (C++ implementation), FIC-MRCC        
  Spencer Leger          : CASSCF response                               
  Dagmar Lenk            : GEPOL surface, SMD, ORCA-2-JSON               
  Dimitrios Liakos       : Extrapolation schemes; Compound Job, Property file
  Dimitrios Manganas     : Further ROCIS development; embedding schemes. LFT, Crystal Embedding 
  Dimitrios Pantazis     : SARC Basis sets                               
  Anastasios Papadopoulos: AUTO-CI, single reference methods and gradients 
  Taras Petrenko         : pre 6.0 DFT Hessian and TD-DFT gradient,  ECA, NRVS 
  Petra Pikulova         : Analytic Raman intensities                    
  Peter Pinski           : DLPNO-MP2, DLPNO-MP2 Gradient                 
  Shashank Vittal Rao    : ES-AILFT, MagRelax                            
  Christoph Reimann      : Effective Core Potentials                     
  Marius Retegan         : Local ZFS, SOC                                
  Christoph Riplinger    : Optimizer, TS searches, QM/MM, DLPNO-CCSD(T), (RO)-DLPNO pert. Triples 
  Michael Roemelt        : Original ROCIS implementation, recursive CI coupling coefficients
  Masaaki Saitow         : Open-shell DLPNO-CCSD energy and density      
  Barbara Sandhoefer     : DKH picture change effects                    
  Yorick L. A. Schmerwitz: GMF and freeze-and-release deltaSCF, NEB S-IDPP initial path                    
  Kantharuban Sivalingam : CASSCF convergence/infrastructure, NEVPT2, NEVPT3, NEVPT4(SD), FIC-MRCI and CEPA variants
  Bernardo de Souza      : ESD, SOC TD-DFT                               
  Georgi L. Stoychev     : AutoAux, RI-MP2 NMR, DLPNO-MP2 response, X2C  
  Van Anh Tran           : RI-MP2 g-tensors                              
  Willem Van den Heuvel  : Paramagnetic NMR                              
  Zikuan Wang            : NOTCH, Electric field optimization            
  Frank Wennmohs         : Technical directorship and infrastructure     
  Hang Xu                : AUTO-CI-Response properties                   
                                                                         
[FACCTs GmbH]                                                            
  Markus Bursch, Nicolas Foglia, Miquel Garcia-Rates, Ingolf Harden, Hagen Neugebauer, Anastasios Papadopoulos, 
  Christoph Riplinger, Bernardo de Souza, Georgi L. Stoychev                                                    
                                                                 
  APM, various basis sets, CI-OPT, improved COSX, DLPNO-Multilevel,           
  DOCKER, DRACO, updates on ESD, Fragmentator, GOAT, IRC, LR-CPCM, L-BFGS, MBIS, meta-GGA TD-DFT gradient, ML-optimized integration grids, 
  MM, NACMEs, nearIR, NEB, NEB-TS, NL-DFT gradient (VV10), 2- and 3-layer-ONIOM, interface openCOSMO-RS, QMMM,   
  Crystal-QMMM, RESP, rigid body optimization, SF, symmetry and pop. for TD-DFT, various functionals, SOLVATOR                                   
                                                                         
[Other institutions]                                                     
  V. Asgeirsson          : NEB                                           
  Christoph Bannwarth    : sTDA-DFT, sTD-DFT, PBEh-3c, B97-3c, D3        
  Giovanni Bistoni       : ETS/NOCV, ADLD/ADEX, COVALED                  
  Martin Brehm           : Molecular dynamics                            
  Ronald Cardenas        : ETS/NOCV                                      
  Martina Colucci        : COVALED                                       
  Sebastian Ehlert       : rSCAN, r2SCAN, r2SCAN-3c, D4, dhf basis sets  
  Marvin Friede          : D4 for Fr, Ra, Ac-Lr                          
  Lars Goerigk           : TD-DFT with DH, B97 family of functionals     
  Stefan Grimme          : VdW corrections, initial TS optimization, DFT functionals, gCP, sTDA/sTD-DF 
  Waldemar Hujo          : DFT-NL                                        
  H. Jonsson             : NEB                                           
  Holger Kruse           : gCP                                           
  Marcel Mueller         : wB97X-3c, vDZP basis set                      
  Hagen Neugebauer       : wr2SCAN, Native XTB                           
  Gianluca Regni         : ADLD/ADEX                                     
  Tobias Risthaus        : pre 6.0 range-separated hybrid DFT and stability analysis
  Lukas Wittmann         : regularized MP2, r2SCAN double-hybrids, wr2SCAN        
                                                                         
We gratefully acknowledge several colleagues who have allowed us to      
interface, adapt or use parts of their codes:                            
  Ed Valeev, F. Pavosevic, A. Kumar             : LibInt (2-el integral package), F12 methods 
  Garnet Chan, S. Sharma, J. Yang, R. Olivares  : DMRG                   
  Ulf Ekstrom                                   : XCFun DFT Library      
  Mihaly Kallay                                 : mrcc  (arbitrary order and MRCC methods)
  Frank Weinhold                                : gennbo (NPA and NBO analysis)           
  Simon Mueller                                 : openCOSMO-RS                            
  Christopher J. Cramer and Donald G. Truhlar   : smd solvation model                     
  S Lehtola, MJT Oliveira, MAL Marques          : LibXC Library                           
  Liviu Ungur et al                             : ANISO software                          


 Your calculation uses the libint2 library for the computation of 2-el integrals
 For citations please refer to: http://libint.valeyev.net

 Your ORCA version has been built with support for libXC version: 7.0.0
 For citations please refer to: https://libxc.gitlab.io

 This ORCA versions uses:
   CBLAS   interface :  Fast vector & matrix operations
   LAPACKE interface :  Fast linear algebra routines
   SCALAPACK package :  Parallel linear algebra routines
   Shared memory     :  Shared parallel matrices
   BLAS/LAPACK       :  OpenBLAS 0.3.29  USE64BITINT DYNAMIC_ARCH NO_AFFINITY Haswell SINGLE_THREADED
        Core in use  :  Haswell
   Copyright (c) 2011-2014, The OpenBLAS Project


  ***********************************
  * Starting time: Thu Jul  9 11:19:20 2026
  * Host name:     ylva-work-pc
  * Process ID:    115013
  * Working dir.:  /home/ylvao/work/projects/bsse
  ***********************************

Warning: RI is on but no J-basis has been assigned. Assigning Def2/J (nothing to worry about!)
================================================================================

----- Orbital basis set information -----
Your calculation utilizes the basis: def2-TZVP
   F. Weigend and R. Ahlrichs, Phys. Chem. Chem. Phys. 7, 3297 (2005).

----- AuxJ basis set information -----
Your calculation utilizes the auxiliary basis: def2/J
   H-Rn: F. Weigend, Phys. Chem. Chem. Phys. 8, 1057 (2006).
   Fr-Lr: K. Eichkorn, F. Weigend, O. Treutler, R. Ahlrichs; Theor. Chem. Acc. 97, 119 (1997).

================================================================================
                                        WARNINGS
                       Please study these warnings very carefully!
================================================================================


================================================================================
                                       INPUT FILE
================================================================================
NAME = TPhP_def2tzvp.inp
|  1> ! BP86 def2-TZVP TightSCF defgrid3
|  2> 
|  3> *xyz 0 1
|  4> P -2.29773900 1.27158900 -0.14124300
|  5> C -3.22530300 0.70179900 -1.64936100
|  6> C -4.33139200 1.37833600 -2.21045200
|  7> C -2.74699900 -0.46688100 -2.28889000
|  8> C -4.94847100 0.89146100 -3.37718100
|  9> H -4.71221100 2.29438300 -1.73196300
| 10> C -3.37293000 -0.95956000 -3.44550000
| 11> H -1.87062500 -0.99311100 -1.87421600
| 12> C -4.47484200 -0.27886400 -3.99520000
| 13> H -5.80887300 1.43169200 -3.80439000
| 14> H -2.99059000 -1.87366200 -3.92773400
| 15> H -4.95991800 -0.65793200 -4.90891700
| 16> C -3.11043600 0.29062600 1.21396600
| 17> C -2.45795100 0.27466200 2.46989300
| 18> C -4.29662600 -0.46028800 1.05552000
| 19> C -2.99006000 -0.45428600 3.54599800
| 20> H -1.51936900 0.83911200 2.60155200
| 21> C -4.82084200 -1.20115000 2.13032500
| 22> H -4.81360400 -0.46687200 0.08298900
| 23> C -4.17275300 -1.19761700 3.37775000
| 24> H -2.47174200 -0.45188800 4.51844400
| 25> H -5.74564800 -1.78410700 1.99054700
| 26> H -4.58529600 -1.77893900 4.21784000
| 27> C -2.99641600 2.97362200 0.13103400
| 28> C -4.05708100 3.26992600 1.01599300
| 29> C -2.38072700 4.03639600 -0.57255900
| 30> C -4.49613900 4.59573900 1.18472900
| 31> H -4.54269100 2.45742700 1.57915200
| 32> C -2.82951600 5.35765400 -0.41372900
| 33> H -1.53699400 3.82251300 -1.25025500
| 34> C -3.88780200 5.64147900 0.46897600
| 35> H -5.32309500 4.81131000 1.88065500
| 36> H -2.34208900 6.17235500 -0.97318500
| 37> H -4.23357800 6.67894100 0.60307100
| 38> **                         ****END OF INPUT****
================================================================================

                       ****************************
                       * Single Point Calculation *
                       ****************************

---------------------------------
CARTESIAN COORDINATES (ANGSTROEM)
---------------------------------
  P     -2.297739    1.271589   -0.141243
  C     -3.225303    0.701799   -1.649361
  C     -4.331392    1.378336   -2.210452
  C     -2.746999   -0.466881   -2.288890
  C     -4.948471    0.891461   -3.377181
  H     -4.712211    2.294383   -1.731963
  C     -3.372930   -0.959560   -3.445500
  H     -1.870625   -0.993111   -1.874216
  C     -4.474842   -0.278864   -3.995200
  H     -5.808873    1.431692   -3.804390
  H     -2.990590   -1.873662   -3.927734
  H     -4.959918   -0.657932   -4.908917
  C     -3.110436    0.290626    1.213966
  C     -2.457951    0.274662    2.469893
  C     -4.296626   -0.460288    1.055520
  C     -2.990060   -0.454286    3.545998
  H     -1.519369    0.839112    2.601552
  C     -4.820842   -1.201150    2.130325
  H     -4.813604   -0.466872    0.082989
  C     -4.172753   -1.197617    3.377750
  H     -2.471742   -0.451888    4.518444
  H     -5.745648   -1.784107    1.990547
  H     -4.585296   -1.778939    4.217840
  C     -2.996416    2.973622    0.131034
  C     -4.057081    3.269926    1.015993
  C     -2.380727    4.036396   -0.572559
  C     -4.496139    4.595739    1.184729
  H     -4.542691    2.457427    1.579152
  C     -2.829516    5.357654   -0.413729
  H     -1.536994    3.822513   -1.250255
  C     -3.887802    5.641479    0.468976
  H     -5.323095    4.811310    1.880655
  H     -2.342089    6.172355   -0.973185
  H     -4.233578    6.678941    0.603071

----------------------------
CARTESIAN COORDINATES (A.U.)
----------------------------
  NO LB      ZA    FRAG     MASS         X           Y           Z
   0 P    15.0000    0    30.974   -4.342097    2.402955   -0.266911
   1 C     6.0000    0    12.011   -6.094939    1.326208   -3.116841
   2 C     6.0000    0    12.011   -8.185145    2.604678   -4.177149
   3 C     6.0000    0    12.011   -5.191076   -0.882277   -4.325375
   4 C     6.0000    0    12.011   -9.351255    1.684617   -6.381947
   5 H     1.0000    0     1.008   -8.904788    4.335756   -3.272936
   6 C     6.0000    0    12.011   -6.373914   -1.813306   -6.511051
   7 H     1.0000    0     1.008   -3.534969   -1.876708   -3.541755
   8 C     6.0000    0    12.011   -8.456226   -0.526977   -7.549834
   9 H     1.0000    0     1.008  -10.977179    2.705506   -7.189255
  10 H     1.0000    0     1.008   -5.651396   -3.540708   -7.422342
  11 H     1.0000    0     1.008   -9.372887   -1.243311   -9.276509
  12 C     6.0000    0    12.011   -5.877872    0.549204    2.294063
  13 C     6.0000    0    12.011   -4.644854    0.519036    4.667421
  14 C     6.0000    0    12.011   -8.119446   -0.869818    1.994644
  15 C     6.0000    0    12.011   -5.650395   -0.858476    6.700965
  16 H     1.0000    0     1.008   -2.871191    1.585692    4.916221
  17 C     6.0000    0    12.011   -9.110071   -2.269845    4.025731
  18 H     1.0000    0     1.008   -9.096393   -0.882260    0.156826
  19 C     6.0000    0    12.011   -7.885360   -2.263168    6.383022
  20 H     1.0000    0     1.008   -4.670915   -0.853945    8.538622
  21 H     1.0000    0     1.008  -10.857701   -3.371474    3.761589
  22 H     1.0000    0     1.008   -8.664954   -3.361708    7.970562
  23 C     6.0000    0    12.011   -5.662406    5.619331    0.247618
  24 C     6.0000    0    12.011   -7.666772    6.179265    1.919949
  25 C     6.0000    0    12.011   -4.498922    7.627683   -1.081980
  26 C     6.0000    0    12.011   -8.496471    8.684688    2.238813
  27 H     1.0000    0     1.008   -8.584442    4.643864    2.984165
  28 C     6.0000    0    12.011   -5.347010   10.124499   -0.781835
  29 H     1.0000    0     1.008   -2.904498    7.223503   -2.362640
  30 C     6.0000    0    12.011   -7.346881   10.660850    0.886236
  31 H     1.0000    0     1.008  -10.059192    9.092058    3.553923
  32 H     1.0000    0     1.008   -4.425907   11.664061   -1.839053
  33 H     1.0000    0     1.008   -8.000303   12.621369    1.139639

--------------------------------
INTERNAL COORDINATES (ANGSTROEM)
--------------------------------
 P      0   0   0     0.000000000000     0.00000000     0.00000000
 C      1   0   0     1.859961160917     0.00000000     0.00000000
 C      2   1   0     1.412783882471   124.45548321     0.00000000
 C      2   1   3     1.415480484025   116.79236976   177.82177000
 C      3   2   1     1.406801449142   120.46857950   178.21534055
 H      3   2   1     1.101415879716   119.76440291   358.31786067
 C      4   2   1     1.404374916432   120.74002807   180.93401381
 H      4   2   1     1.103133685032   119.50294513     0.73679002
 C      5   3   2     1.405678668696   120.32978192     0.30417613
 H      5   3   2     1.102111003777   119.62190431   180.15169678
 H      7   4   2     1.101960059512   119.78709581   180.31086116
 H      9   5   3     1.101757700445   120.18054560   180.00518318
 C      1   2   3     1.859934475958   102.19975352    95.71743222
 C     13   1   2     1.415395405479   116.81162379   167.18271589
 C     13   1   2     1.412807023769   124.43501011   349.23773654
 C     14  13   1     1.404459734421   120.73561467   180.84463832
 H     14  13   1     1.103120150077   119.49611172     0.63950679
 C     15  13   1     1.406728369560   120.47139699   178.32774628
 H     15  13   1     1.101420059515   119.75476174   358.42722962
 C     18  15  13     1.405738583320   120.32292371     0.29937291
 H     16  14  13     1.101957586500   119.78976357   180.29629860
 H     18  15  13     1.102108384311   119.62820322   180.15721011
 H     20  18  15     1.101761409123   120.17686136   180.01530181
 C      1   2   3     1.859892644253   102.22233144   350.13657476
 C     24   1   2     1.412784036689   124.44792719    95.55323314
 C     24   1   2     1.415487417622   116.80320969   273.38951847
 C     25  24   1     1.406777834638   120.47131934   178.24093783
 H     25  24   1     1.101417158202   119.77335100   358.34282324
 C     26  24   1     1.404407789064   120.74067636   180.91081805
 H     26  24   1     1.103133347059   119.50357115     0.71419284
 C     27  25  24     1.405684320955   120.32990762     0.30062345
 H     27  25  24     1.102107108884   119.62120953   180.15255644
 H     29  26  24     1.101959080758   119.78733305   180.31415236
 H     31  27  25     1.101757646965   120.18071778   180.00416964

---------------------------
INTERNAL COORDINATES (A.U.)
---------------------------
 P      0   0   0     0.000000000000     0.00000000     0.00000000
 C      1   0   0     3.514817213864     0.00000000     0.00000000
 C      2   1   0     2.669774624289   124.45548321     0.00000000
 C      2   1   3     2.674870462718   116.79236976   177.82177000
 C      3   2   1     2.658469463681   120.46857950   178.21534055
 H      3   2   1     2.081374372216   119.76440291   358.31786067
 C      4   2   1     2.653883981404   120.74002807   180.93401381
 H      4   2   1     2.084620553814   119.50294513     0.73679002
 C      5   3   2     2.656347716130   120.32978192     0.30417613
 H      5   3   2     2.082687966319   119.62190431   180.15169678
 H      7   4   2     2.082402722998   119.78709581   180.31086116
 H      9   5   3     2.082020319779   120.18054560   180.00518318
 C      1   2   3     3.514766786600   102.19975352    95.71743222
 C     13   1   2     2.674709687565   116.81162379   167.18271589
 C     13   1   2     2.669818355004   124.43501011   349.23773654
 C     14  13   1     2.654044264176   120.73561467   180.84463832
 H     14  13   1     2.084594976455   119.49611172     0.63950679
 C     15  13   1     2.658331363286   120.47139699   178.32774628
 H     15  13   1     2.081382270890   119.75476174   358.42722962
 C     18  15  13     2.656460938362   120.32292371     0.29937291
 H     16  14  13     2.082398049681   119.78976357   180.29629860
 H     18  15  13     2.082683016247   119.62820322   180.15721011
 H     20  18  15     2.082027328166   120.17686136   180.01530181
 C      1   2   3     3.514687736133   102.22233144   350.13657476
 C     24   1   2     2.669774915717   124.44792719    95.55323314
 C     24   1   2     2.674883565317   116.80320969   273.38951847
 C     25  24   1     2.658424838737   120.47131934   178.24093783
 H     25  24   1     2.081376788204   119.77335100   358.34282324
 C     26  24   1     2.653946101678   120.74067636   180.91081805
 H     26  24   1     2.084619915138   119.50357115     0.71419284
 C     27  25  24     2.656358397352   120.32990762     0.30062345
 H     27  25  24     2.082680606039   119.62120953   180.15255644
 H     29  26  24     2.082400873421   119.78733305   180.31415236
 H     31  27  25     2.082020218717   120.18071778   180.00416964

---------------------
BASIS SET INFORMATION
---------------------
There are 3 groups of distinct atoms

 Group   1 Type P   : 14s9p3d1f contracted to 5s5p2d1f pattern {73211/51111/21/1}
 Group   2 Type C   : 11s6p2d1f contracted to 5s3p2d1f pattern {62111/411/11/1}
 Group   3 Type H   : 5s1p contracted to 3s1p pattern {311/1}

Atom   0P    basis set group =>   1
Atom   1C    basis set group =>   2
Atom   2C    basis set group =>   2
Atom   3C    basis set group =>   2
Atom   4C    basis set group =>   2
Atom   5H    basis set group =>   3
Atom   6C    basis set group =>   2
Atom   7H    basis set group =>   3
Atom   8C    basis set group =>   2
Atom   9H    basis set group =>   3
Atom  10H    basis set group =>   3
Atom  11H    basis set group =>   3
Atom  12C    basis set group =>   2
Atom  13C    basis set group =>   2
Atom  14C    basis set group =>   2
Atom  15C    basis set group =>   2
Atom  16H    basis set group =>   3
Atom  17C    basis set group =>   2
Atom  18H    basis set group =>   3
Atom  19C    basis set group =>   2
Atom  20H    basis set group =>   3
Atom  21H    basis set group =>   3
Atom  22H    basis set group =>   3
Atom  23C    basis set group =>   2
Atom  24C    basis set group =>   2
Atom  25C    basis set group =>   2
Atom  26C    basis set group =>   2
Atom  27H    basis set group =>   3
Atom  28C    basis set group =>   2
Atom  29H    basis set group =>   3
Atom  30C    basis set group =>   2
Atom  31H    basis set group =>   3
Atom  32H    basis set group =>   3
Atom  33H    basis set group =>   3
---------------------------------
AUXILIARY/J BASIS SET INFORMATION
---------------------------------
There are 3 groups of distinct atoms

 Group   1 Type P   : 14s5p5d2f1g contracted to 8s4p3d1f1g pattern {71111111/2111/311/2/1}
 Group   2 Type C   : 12s5p4d2f1g contracted to 6s4p3d1f1g pattern {711111/2111/211/2/1}
 Group   3 Type H   : 5s2p1d contracted to 3s1p1d pattern {311/2/1}

Atom   0P    basis set group =>   1
Atom   1C    basis set group =>   2
Atom   2C    basis set group =>   2
Atom   3C    basis set group =>   2
Atom   4C    basis set group =>   2
Atom   5H    basis set group =>   3
Atom   6C    basis set group =>   2
Atom   7H    basis set group =>   3
Atom   8C    basis set group =>   2
Atom   9H    basis set group =>   3
Atom  10H    basis set group =>   3
Atom  11H    basis set group =>   3
Atom  12C    basis set group =>   2
Atom  13C    basis set group =>   2
Atom  14C    basis set group =>   2
Atom  15C    basis set group =>   2
Atom  16H    basis set group =>   3
Atom  17C    basis set group =>   2
Atom  18H    basis set group =>   3
Atom  19C    basis set group =>   2
Atom  20H    basis set group =>   3
Atom  21H    basis set group =>   3
Atom  22H    basis set group =>   3
Atom  23C    basis set group =>   2
Atom  24C    basis set group =>   2
Atom  25C    basis set group =>   2
Atom  26C    basis set group =>   2
Atom  27H    basis set group =>   3
Atom  28C    basis set group =>   2
Atom  29H    basis set group =>   3
Atom  30C    basis set group =>   2
Atom  31H    basis set group =>   3
Atom  32H    basis set group =>   3
Atom  33H    basis set group =>   3
------------------------------------------------------------------------------
                             ORCA STARTUP CALCULATIONS
                           -- RI-GTO INTEGRALS CHOSEN --
------------------------------------------------------------------------------
------------------------------------------------------------------------------
                   ___                                                        
                  /   \      - P O W E R E D   B Y -                         
                 /     \                                                     
                 |  |  |   _    _      __       _____    __    __             
                 |  |  |  | |  | |    /  \     |  _  \  |  |  /  |          
                  \  \/   | |  | |   /    \    | | | |  |  | /  /          
                 / \  \   | |__| |  /  /\  \   | |_| |  |  |/  /          
                |  |  |   |  __  | /  /__\  \  |    /   |      \           
                |  |  |   | |  | | |   __   |  |    \   |  |\   \          
                \     /   | |  | | |  |  |  |  | |\  \  |  | \   \       
                 \___/    |_|  |_| |__|  |__|  |_| \__\ |__|  \__/        
                                                                              
                      - O R C A' S   B I G   F R I E N D -                    
                                      &                                       
                       - I N T E G R A L  F E E D E R -                       
                                                                              
 v1 FN, 2020, v2 2021, v3 2022-2024                                           
------------------------------------------------------------------------------


----------------------
SHARK INTEGRAL PACKAGE
----------------------

Number of atoms                             ...     34
Number of basis functions                   ...    685
Number of shells                            ...    271
Maximum angular momentum                    ...      3
Integral batch strategy                     ... SHARK/LIBINT Hybrid
RI-J (if used) integral strategy            ... SPLIT-RIJ (Revised 2003 algorithm where possible)
Printlevel                                  ...      1
Contraction scheme used                     ... SEGMENTED contraction
Prescreening option                         ... SCHWARTZ
   Thresh                                   ... 2.500e-11
   Tcut                                     ... 2.500e-12
   Tpresel                                  ... 2.500e-12 
Coulomb Range Separation                    ... NOT USED
Exchange Range Separation                   ... NOT USED
Multipole approximations                    ... NOT USED
Finite Nucleus Model                        ... NOT USED
CABS basis                                  ... NOT available
Auxiliary Coulomb fitting basis             ... AVAILABLE
   # of basis functions in Aux-J            ...   1098
   # of shells in Aux-J                     ...    362
   Maximum angular momentum in Aux-J        ...      4
Auxiliary J/K fitting basis                 ... NOT available
Auxiliary Correlation fitting basis         ... NOT available
Auxiliary 'external' fitting basis          ... NOT available

Checking pre-screening integrals            ... done (  0.0 sec) Dimension = 271
   => SHARK Basis and OBASIS are compatible. Storing Pre-screening
Shell pair information
Shell pair cut-off parameter TPreSel        ...   2.5e-12
Total number of shell pairs                 ...     36856
Shell pairs after pre-screening             ...     27678
Total number of primitive shell pairs       ...    114480
Primitive shell pairs kept                  ...     57455
          la=0 lb=0:   7053 shell pairs
          la=1 lb=0:   8001 shell pairs
          la=1 lb=1:   2293 shell pairs
          la=2 lb=0:   3939 shell pairs
          la=2 lb=1:   2260 shell pairs
          la=2 lb=2:    579 shell pairs
          la=3 lb=0:   1852 shell pairs
          la=3 lb=1:   1053 shell pairs
          la=3 lb=2:    518 shell pairs
          la=3 lb=3:    130 shell pairs

Checking whether 4 symmetric matrices of dimension 685 fit in memory
:Max Core in MB      =   4096.00
 MB in use           =     37.15
 MB left             =   4058.85
 MB needed           =      7.17
 Data fit in memory  = YES
Calculating RI/J V-Matrix + Cholesky decomp.... done (  0.0 sec)
Calculating Nuclear repulsion               ... done (  0.0 sec) ENN=   1393.842336547333 Eh

Diagonalization of the overlap matrix:
Smallest eigenvalue                        ... 8.423e-06
Time for diagonalization                   ...    0.056 sec
Threshold for overlap eigenvalues          ... 1.000e-07
Number of eigenvalues below threshold      ... 0
Time for construction of square roots      ...    0.034 sec
Total time needed                          ...    0.091 sec

-------------------
DFT GRID GENERATION
-------------------

General Integration Accuracy     IntAcc      ... 4.959
Radial Grid Type                 RadialGrid  ... OptM3 with GC (2021)
Angular Grid (max. ang.)         AngularGrid ... 6 (Lebedev-590)
Angular grid pruning method      GridPruning ... 4 (adaptive)
Weight generation scheme         WeightScheme... mBecke (2022)
Basis function cutoff            BFCut       ... 1.0000e-11
Integration weight cutoff        WCut        ... 1.0000e-14
Partially contracted basis set               ... off
Rotationally invariant grid construction     ... off
Angular grids for H and He will be reduced by one unit

Total number of grid points                  ...   400329
Total number of batches                      ...     6269
Average number of points per batch           ...       63
Average number of grid points per atom       ...    11774
Grids setup in   4.5 sec
Initializing property integral containers    ... done (  0.0 sec)

SHARK setup successfully completed in   5.1 seconds

Maximum memory used throughout the entire STARTUP-calculation: 193.1 MB
-------------------------------------------------------------------------------
                                 ORCA GUESS
                   Start orbitals & Density for SCF / CASSCF
-------------------------------------------------------------------------------

------------
SCF SETTINGS
------------
Hamiltonian:
 Density Functional     Method          .... DFT(GTOs)
 Exchange Functional    Exchange        .... B88
   X-Alpha parameter    XAlpha          ....  0.666667
   Becke's b parameter  XBeta           ....  0.004200
 Correlation Functional Correlation     .... P86
 LDA part of GGA corr.  LDAOpt          .... PW91-LDA
 Gradients option       PostSCFGGA      .... off
   NL short-range parameter             ....  4.400000
 RI-approximation to the Coulomb term is turned on
   Number of AuxJ basis functions       .... 1098


General Settings:
 Integral files         IntName         .... TPhP_def2tzvp
 Hartree-Fock type      HFTyp           .... RHF
 Total Charge           Charge          ....    0
 Multiplicity           Mult            ....    1
 Number of Electrons    NEL             ....  138
 Basis Dimension        Dim             ....  685
 Nuclear Repulsion      ENuc            ....   1393.8423365473 Eh

Convergence Acceleration:
 AO-DIIS                CNVDIIS         .... on
   Start iteration      DIISMaxIt       ....    12
   Startup error        DIISStart       ....  0.200000
   # of expansion vecs  DIISMaxEq       ....     5
   Bias factor          DIISBfac        ....   1.050
   Max. coefficient     DIISMaxC        ....  10.000
 MO-DIIS                CNVKDIIS        .... off
 Trust-Rad. Augm. Hess. CNVTRAH         .... auto
   Auto Start mean grad. ratio tolernc. ....  1.125000
   Auto Start start iteration           ....    50
   Auto Start num. interpolation iter.  ....    10
   Max. Number of Micro iterations      ....    24
   Max. Number of Macro iterations      .... Maxiter - #DIIS iter
   Number of Davidson start vectors     ....     2
   Converg. threshold    (grad. norm)   ....   1.000e-05
   Grad. Scal. Fac. for Micro threshold ....   0.100
   Minimum threshold for Micro iter.    ....   1.000e-02
   NR start threshold (gradient norm)   ....   1.000e-04
   Initial trust radius                 ....   0.400
   Minimum AH scaling param. (alpha)    ....   1.000
   Maximum AH scaling param. (alpha)    .... 1000.000
   Quad. conv. algorithm                .... NR
   White noise on init. David. guess    .... on
   Maximum white noise                  ....   0.010
   Pseudo random numbers                .... off
   Inactive MOs                         .... canonical
   Orbital update algorithm             .... Taylor
   Preconditioner                       .... Diag
   Full preconditioner red. dimension   ....   250
 SOSCF                 CNVSOSCF           .... on
   Start iteration     SOSCFMaxIt         ....   150
   Startup grad/error  SOSCFStart         ....  0.003300
   Hessian update      SOSCFHessUp        .... L-BFGS
   Autom. constraints  SOSCFAutoConstrain .... off
 Level Shifting         CNVShift        .... on
   Level shift para.    LevelShift      ....    0.2500
   Turn off err/grad.   ShiftErr        ....    0.0010
 Zerner damping         CNVZerner       .... off
 Static damping         CNVDamp         .... on
   Fraction old density DampFac         ....    0.7000
   Max. Damping (<1)    DampMax         ....    0.9800
   Min. Damping (>=0)   DampMin         ....    0.0000
   Turn off err/grad.   DampErr         ....    0.1000

SCF Procedure:
 Maximum # iterations   MaxIter         ....   125
 SCF integral mode      SCFMode         .... Direct
   Integral package                     .... SHARK and LIBINT hybrid scheme
 Reset frequency        DirectResetFreq ....    20
 Integral Threshold     Thresh          ....  2.500e-11 Eh
 Primitive CutOff       TCut            ....  2.500e-12 Eh

Convergence Tolerance:
 Convergence Check Mode ConvCheckMode   .... Total+1el-Energy
 Convergence forced     ConvForced      .... 0
 Energy Change          TolE            ....  1.000e-08 Eh
 1-El. energy change                    ....  1.000e-05 Eh
 Orbital Gradient       TolG            ....  1.000e-05
 Orbital Rotation angle TolX            ....  1.000e-05
 DIIS Error             TolErr          ....  5.000e-07

------------------------------
INITIAL GUESS: MODEL POTENTIAL
------------------------------
Loading Hartree-Fock densities                     ... done
Calculating cut-offs                               ... done
Initializing the effective Hamiltonian             ... done
Setting up the integral package (SHARK)            ... done
Starting the Coulomb interaction                   ... done (   1.4 sec)
Making the grid                                    ... done (   0.5 sec)
Mapping shells                                     ... done
Starting the XC term evaluation                    ... done (   1.1 sec)
  promolecular density results
     # of electrons  =    137.997555276
     EX              =   -119.500260297
     EC              =     -5.083279047
     EX+EC           =   -124.583539344
Transforming the Hamiltonian                       ... done (   0.0 sec)
Diagonalizing the Hamiltonian                      ... done (   0.1 sec)
Back transforming the eigenvectors                 ... done (   0.0 sec)
Now organizing SCF variables                       ... done
                      ------------------
                      INITIAL GUESS DONE (   3.1 sec)
                      ------------------
             **** ENERGY FILE WAS UPDATED (TPhP_def2tzvp.en.tmp) ****
Finished Guess after   3.2 sec
Maximum memory used throughout the entire GUESS-calculation: 91.3 MB

-------------------------------------------------------------------------------------------
                                      ORCA LEAN-SCF
                              memory conserving SCF solver
-------------------------------------------------------------------------------------------

----------------------------------------D-I-I-S--------------------------------------------
Iteration    Energy (Eh)           Delta-E    RMSDP     MaxDP     DIISErr   Damp  Time(sec)
-------------------------------------------------------------------------------------------
               ***  Starting incremental Fock matrix formation  ***
    1    -1036.2150838245324849     0.00e+00  8.34e-04  2.49e-02  1.28e-01  0.700  11.8
    2    -1036.3947871307136666    -1.80e-01  6.57e-04  3.12e-02  6.04e-02  0.700  11.6
                               ***Turning on AO-DIIS***
    3    -1036.4584041312168665    -6.36e-02  4.36e-04  2.55e-02  1.83e-02  0.700  11.3
    4    -1036.4961868587611207    -3.78e-02  1.02e-03  5.94e-02  1.02e-02  0.000  10.5
    5    -1036.5816062971020983    -8.54e-02  1.26e-04  9.71e-03  5.30e-03  0.000  11.5
                              *** Initializing SOSCF ***
---------------------------------------S-O-S-C-F--------------------------------------
Iteration    Energy (Eh)           Delta-E    RMSDP     MaxDP     MaxGrad    Time(sec)
--------------------------------------------------------------------------------------
    6    -1036.5824225428427781    -8.16e-04  7.09e-05  3.24e-03  1.06e-03    10.0
               *** Restarting incremental Fock matrix formation ***
    7    -1036.5824663025318841    -4.38e-05  6.27e-05  2.33e-03  2.78e-04    13.1
    8    -1036.5824447443933423     2.16e-05  2.91e-05  1.19e-03  8.06e-04     9.0
    9    -1036.5824724934227561    -2.77e-05  2.96e-05  1.05e-03  9.52e-05     9.0
   10    -1036.5824712254125188     1.27e-06  1.02e-05  4.30e-04  1.51e-04     8.7
   11    -1036.5824734699422152    -2.24e-06  1.06e-05  4.81e-04  2.50e-05     8.3
   12    -1036.5824733914391800     7.85e-08  3.95e-06  2.08e-04  3.25e-05     8.2
   13    -1036.5824735445780789    -1.53e-07  4.71e-06  2.98e-04  1.09e-05     8.0
   14    -1036.5824735346650414     9.91e-09  2.41e-06  1.60e-04  2.23e-05     7.9
                 **** Energy Check signals convergence ****

               *****************************************************
               *                     SUCCESS                       *
               *           SCF CONVERGED AFTER  14 CYCLES          *
               *****************************************************

             **** ENERGY FILE WAS UPDATED (TPhP_def2tzvp.en.tmp) ****

----------------
TOTAL SCF ENERGY
----------------

Total Energy       :      -1036.58247356082620 Eh          -28206.84311 eV

Components:
Nuclear Repulsion  :       1393.84233654733316 Eh           37928.37822 eV
Electronic Energy  :      -2430.42481010815936 Eh          -66135.22133 eV
One Electron Energy:      -4180.21700531341139 Eh         -113749.48763 eV
Two Electron Energy:       1749.79219520525203 Eh           47614.26629 eV

Virial components:
Potential Energy   :      -2068.32066899234269 Eh          -56281.86672 eV
Kinetic Energy     :       1031.73819543151649 Eh           28075.02360 eV
Virial Ratio       :          2.00469525907906

DFT components:
N(Alpha)           :       69.000001417669 electrons
N(Beta)            :       69.000001417669 electrons
N(Total)           :      138.000002835338 electrons
E(X)               :     -121.404581744405 Eh       
E(C)               :       -5.078751087928 Eh       
E(XC)              :     -126.483332832332 Eh       

---------------
SCF CONVERGENCE
---------------

  Last Energy change         ...   -9.9130e-09  Tolerance :   1.0000e-08
  Last MAX-Density change    ...    1.5981e-04  Tolerance :   1.0000e-07
  Last RMS-Density change    ...    2.4147e-06  Tolerance :   5.0000e-09
  Last DIIS Error            ...    1.0588e-03  Tolerance :   5.0000e-07
  Last Orbital Gradient      ...    2.2253e-05  Tolerance :   1.0000e-05
  Last Orbital Rotation      ...    3.1244e-05  Tolerance :   1.0000e-05


----------------
ORBITAL ENERGIES
----------------

  NO   OCC          E(Eh)            E(eV) 
   0   2.0000     -76.347987     -2077.5344 
   1   2.0000      -9.917146      -269.8592 
   2   2.0000      -9.917135      -269.8590 
   3   2.0000      -9.917110      -269.8583 
   4   2.0000      -9.910864      -269.6883 
   5   2.0000      -9.910813      -269.6869 
   6   2.0000      -9.910766      -269.6857 
   7   2.0000      -9.910321      -269.6736 
   8   2.0000      -9.910231      -269.6711 
   9   2.0000      -9.910192      -269.6700 
  10   2.0000      -9.909830      -269.6602 
  11   2.0000      -9.909771      -269.6586 
  12   2.0000      -9.909735      -269.6576 
  13   2.0000      -9.909649      -269.6553 
  14   2.0000      -9.909574      -269.6532 
  15   2.0000      -9.909548      -269.6525 
  16   2.0000      -9.909303      -269.6458 
  17   2.0000      -9.909228      -269.6438 
  18   2.0000      -9.909204      -269.6431 
  19   2.0000      -6.307367      -171.6322 
  20   2.0000      -4.523210      -123.0828 
  21   2.0000      -4.523206      -123.0827 
  22   2.0000      -4.520395      -123.0062 
  23   2.0000      -0.785010       -21.3612 
  24   2.0000      -0.778117       -21.1736 
  25   2.0000      -0.778057       -21.1720 
  26   2.0000      -0.702190       -19.1076 
  27   2.0000      -0.679904       -18.5011 
  28   2.0000      -0.679882       -18.5005 
  29   2.0000      -0.678801       -18.4711 
  30   2.0000      -0.674529       -18.3549 
  31   2.0000      -0.674508       -18.3543 
  32   2.0000      -0.589234       -16.0339 
  33   2.0000      -0.550348       -14.9757 
  34   2.0000      -0.550301       -14.9745 
  35   2.0000      -0.548779       -14.9330 
  36   2.0000      -0.539525       -14.6812 
  37   2.0000      -0.539513       -14.6809 
  38   2.0000      -0.505128       -13.7452 
  39   2.0000      -0.467858       -12.7311 
  40   2.0000      -0.467816       -12.7299 
  41   2.0000      -0.446494       -12.1497 
  42   2.0000      -0.411463       -11.1965 
  43   2.0000      -0.411418       -11.1953 
  44   2.0000      -0.408453       -11.1146 
  45   2.0000      -0.403442       -10.9782 
  46   2.0000      -0.403432       -10.9779 
  47   2.0000      -0.396773       -10.7967 
  48   2.0000      -0.378421       -10.2974 
  49   2.0000      -0.377789       -10.2802 
  50   2.0000      -0.377749       -10.2791 
  51   2.0000      -0.366277        -9.9669 
  52   2.0000      -0.366193        -9.9646 
  53   2.0000      -0.336729        -9.1629 
  54   2.0000      -0.333937        -9.0869 
  55   2.0000      -0.333846        -9.0844 
  56   2.0000      -0.326525        -8.8852 
  57   2.0000      -0.307373        -8.3641 
  58   2.0000      -0.307332        -8.3629 
  59   2.0000      -0.306662        -8.3447 
  60   2.0000      -0.288717        -7.8564 
  61   2.0000      -0.288674        -7.8552 
  62   2.0000      -0.251728        -6.8499 
  63   2.0000      -0.240061        -6.5324 
  64   2.0000      -0.239955        -6.5295 
  65   2.0000      -0.239906        -6.5282 
  66   2.0000      -0.233320        -6.3490 
  67   2.0000      -0.233302        -6.3485 
  68   2.0000      -0.195973        -5.3327 
  69   0.0000      -0.065133        -1.7724 
  70   0.0000      -0.065008        -1.7690 
  71   0.0000      -0.061171        -1.6646 
  72   0.0000      -0.048595        -1.3224 
  73   0.0000      -0.046053        -1.2532 
  74   0.0000      -0.045946        -1.2502 
  75   0.0000       0.013736         0.3738 
  76   0.0000       0.013977         0.3803 
  77   0.0000       0.027677         0.7531 
  78   0.0000       0.041219         1.1216 
  79   0.0000       0.041265         1.1229 
*Only the first 10 virtual orbitals were printed.

                    ********************************
                    * MULLIKEN POPULATION ANALYSIS *
                    ********************************

-----------------------
MULLIKEN ATOMIC CHARGES
-----------------------
   0 P :    0.049479
   1 C :    0.008213
   2 C :   -0.133544
   3 C :   -0.129654
   4 C :   -0.139317
   5 H :    0.148971
   6 C :   -0.125469
   7 H :    0.112343
   8 C :   -0.090076
   9 H :    0.109720
  10 H :    0.110372
  11 H :    0.111435
  12 C :    0.007796
  13 C :   -0.129175
  14 C :   -0.133667
  15 C :   -0.125735
  16 H :    0.112491
  17 C :   -0.138774
  18 H :    0.148979
  19 C :   -0.089913
  20 H :    0.110411
  21 H :    0.109795
  22 H :    0.111503
  23 C :    0.008484
  24 C :   -0.132629
  25 C :   -0.130144
  26 C :   -0.139626
  27 H :    0.149123
  28 C :   -0.125236
  29 H :    0.112414
  30 C :   -0.090083
  31 H :    0.109698
  32 H :    0.110383
  33 H :    0.111432
Sum of atomic charges:    0.0000000

--------------------------------
MULLIKEN REDUCED ORBITAL CHARGES
--------------------------------
  0 P s       :     5.691587  s :     5.691587
      pz      :     2.783847  p :     8.951748
      px      :     3.383157
      py      :     2.784744
      dz2     :     0.062019  d :     0.278036
      dxz     :     0.053243
      dyz     :     0.070614
      dx2y2   :     0.043967
      dxy     :     0.048193
      f0      :     0.003907  f :     0.029150
      f+1     :     0.004892
      f-1     :     0.003928
      f+2     :     0.003974
      f-2     :     0.005650
      f+3     :     0.003851
      f-3     :     0.002948

  1 C s       :     3.218612  s :     3.218612
      pz      :     0.907210  p :     2.652471
      px      :     0.859432
      py      :     0.885828
      dz2     :     0.023570  d :     0.113181
      dxz     :     0.020700
      dyz     :     0.018805
      dx2y2   :     0.026337
      dxy     :     0.023769
      f0      :     0.000591  f :     0.007523
      f+1     :     0.001119
      f-1     :     0.001254
      f+2     :     0.001127
      f-2     :     0.001250
      f+3     :     0.001142
      f-3     :     0.001041

  2 C s       :     3.216568  s :     3.216568
      pz      :     0.940762  p :     2.824222
      px      :     0.915189
      py      :     0.968271
      dz2     :     0.018744  d :     0.086024
      dxz     :     0.021722
      dyz     :     0.016415
      dx2y2   :     0.017023
      dxy     :     0.012121
      f0      :     0.001128  f :     0.006729
      f+1     :     0.001061
      f-1     :     0.000681
      f+2     :     0.001115
      f-2     :     0.001210
      f+3     :     0.001033
      f-3     :     0.000502

  3 C s       :     3.235205  s :     3.235205
      pz      :     0.921911  p :     2.804113
      px      :     0.941236
      py      :     0.940966
      dz2     :     0.019122  d :     0.083481
      dxz     :     0.014762
      dyz     :     0.020859
      dx2y2   :     0.014165
      dxy     :     0.014572
      f0      :     0.001094  f :     0.006856
      f+1     :     0.000610
      f-1     :     0.001253
      f+2     :     0.001105
      f-2     :     0.001274
      f+3     :     0.000525
      f-3     :     0.000995

  4 C s       :     3.245050  s :     3.245050
      pz      :     0.927953  p :     2.810388
      px      :     0.956553
      py      :     0.925881
      dz2     :     0.018791  d :     0.077209
      dxz     :     0.012946
      dyz     :     0.018878
      dx2y2   :     0.012955
      dxy     :     0.013637
      f0      :     0.001052  f :     0.006671
      f+1     :     0.000611
      f-1     :     0.001148
      f+2     :     0.001042
      f-2     :     0.001280
      f+3     :     0.000509
      f-3     :     0.001029

  5 H s       :     0.828929  s :     0.828929
      pz      :     0.006182  p :     0.022100
      px      :     0.005090
      py      :     0.010827

  6 C s       :     3.234481  s :     3.234481
      pz      :     0.923414  p :     2.807744
      px      :     0.927060
      py      :     0.957270
      dz2     :     0.017458  d :     0.076541
      dxz     :     0.016752
      dyz     :     0.015000
      dx2y2   :     0.015550
      dxy     :     0.011782
      f0      :     0.001099  f :     0.006704
      f+1     :     0.000986
      f-1     :     0.000682
      f+2     :     0.001096
      f-2     :     0.001239
      f+3     :     0.001086
      f-3     :     0.000515

  7 H s       :     0.866114  s :     0.866114
      pz      :     0.005461  p :     0.021543
      px      :     0.010038
      py      :     0.006043

  8 C s       :     3.212027  s :     3.212027
      pz      :     0.945555  p :     2.794982
      px      :     0.929433
      py      :     0.919994
      dz2     :     0.013045  d :     0.076388
      dxz     :     0.012578
      dyz     :     0.013131
      dx2y2   :     0.019676
      dxy     :     0.017958
      f0      :     0.000266  f :     0.006678
      f+1     :     0.001034
      f-1     :     0.001191
      f+2     :     0.000868
      f-2     :     0.001224
      f+3     :     0.001128
      f-3     :     0.000967

  9 H s       :     0.868870  s :     0.868870
      pz      :     0.005395  p :     0.021410
      px      :     0.009801
      py      :     0.006215

 10 H s       :     0.868204  s :     0.868204
      pz      :     0.005794  p :     0.021424
      px      :     0.005167
      py      :     0.010463

 11 H s       :     0.867187  s :     0.867187
      pz      :     0.010444  p :     0.021377
      px      :     0.005862
      py      :     0.005072

 12 C s       :     3.219040  s :     3.219040
      pz      :     0.873544  p :     2.652452
      px      :     0.843485
      py      :     0.935423
      dz2     :     0.021907  d :     0.113188
      dxz     :     0.031715
      dyz     :     0.022814
      dx2y2   :     0.021642
      dxy     :     0.015108
      f0      :     0.001637  f :     0.007524
      f+1     :     0.000755
      f-1     :     0.001011
      f+2     :     0.000697
      f-2     :     0.001343
      f+3     :     0.001449
      f-3     :     0.000632

 13 C s       :     3.234822  s :     3.234822
      pz      :     0.927588  p :     2.803980
      px      :     0.935072
      py      :     0.941319
      dz2     :     0.029032  d :     0.083517
      dxz     :     0.017907
      dyz     :     0.018706
      dx2y2   :     0.006953
      dxy     :     0.010920
      f0      :     0.001585  f :     0.006855
      f+1     :     0.000927
      f-1     :     0.001159
      f+2     :     0.001080
      f-2     :     0.001041
      f+3     :     0.000404
      f-3     :     0.000659

 14 C s       :     3.216908  s :     3.216908
      pz      :     0.971531  p :     2.823953
      px      :     0.914203
      py      :     0.938219
      dz2     :     0.018347  d :     0.086077
      dxz     :     0.022762
      dyz     :     0.011171
      dx2y2   :     0.018603
      dxy     :     0.015194
      f0      :     0.001210  f :     0.006730
      f+1     :     0.001004
      f-1     :     0.000624
      f+2     :     0.000870
      f-2     :     0.001110
      f+3     :     0.001317
      f-3     :     0.000595

 15 C s       :     3.234669  s :     3.234669
      pz      :     0.946000  p :     2.807815
      px      :     0.924796
      py      :     0.937019
      dz2     :     0.016003  d :     0.076548
      dxz     :     0.019052
      dyz     :     0.010229
      dx2y2   :     0.018356
      dxy     :     0.012907
      f0      :     0.001189  f :     0.006703
      f+1     :     0.001000
      f-1     :     0.000619
      f+2     :     0.000886
      f-2     :     0.001050
      f+3     :     0.001379
      f-3     :     0.000580

 16 H s       :     0.865967  s :     0.865967
      pz      :     0.003865  p :     0.021543
      px      :     0.010812
      py      :     0.006865

 17 C s       :     3.244674  s :     3.244674
      pz      :     0.901044  p :     2.810239
      px      :     0.954177
      py      :     0.955018
      dz2     :     0.025849  d :     0.077191
      dxz     :     0.016421
      dyz     :     0.018984
      dx2y2   :     0.006673
      dxy     :     0.009264
      f0      :     0.001508  f :     0.006670
      f+1     :     0.000885
      f-1     :     0.001082
      f+2     :     0.001030
      f-2     :     0.001095
      f+3     :     0.000413
      f-3     :     0.000657

 18 H s       :     0.828924  s :     0.828924
      pz      :     0.011808  p :     0.022097
      px      :     0.005910
      py      :     0.004380

 19 C s       :     3.211992  s :     3.211992
      pz      :     0.925364  p :     2.794843
      px      :     0.920638
      py      :     0.948841
      dz2     :     0.013381  d :     0.076399
      dxz     :     0.020651
      dyz     :     0.016462
      dx2y2   :     0.014619
      dxy     :     0.011286
      f0      :     0.001343  f :     0.006678
      f+1     :     0.000737
      f-1     :     0.001036
      f+2     :     0.000431
      f-2     :     0.001312
      f+3     :     0.001334
      f-3     :     0.000484

 20 H s       :     0.868164  s :     0.868164
      pz      :     0.011071  p :     0.021425
      px      :     0.006014
      py      :     0.004340

 21 H s       :     0.868794  s :     0.868794
      pz      :     0.003846  p :     0.021411
      px      :     0.010588
      py      :     0.006978

 22 H s       :     0.867120  s :     0.867120
      pz      :     0.009178  p :     0.021377
      px      :     0.005251
      py      :     0.006948

 23 C s       :     3.218627  s :     3.218627
      pz      :     0.916255  p :     2.652129
      px      :     0.861198
      py      :     0.874676
      dz2     :     0.022441  d :     0.113235
      dxz     :     0.015531
      dyz     :     0.020639
      dx2y2   :     0.026844
      dxy     :     0.027780
      f0      :     0.000520  f :     0.007524
      f+1     :     0.001330
      f-1     :     0.000965
      f+2     :     0.001329
      f-2     :     0.001199
      f+3     :     0.000891
      f-3     :     0.001290

 24 C s       :     3.215594  s :     3.215594
      pz      :     0.946978  p :     2.824286
      px      :     0.922707
      py      :     0.954601
      dz2     :     0.011887  d :     0.086020
      dxz     :     0.008959
      dyz     :     0.022959
      dx2y2   :     0.017039
      dxy     :     0.025176
      f0      :     0.000806  f :     0.006729
      f+1     :     0.001124
      f-1     :     0.000334
      f+2     :     0.001172
      f-2     :     0.001147
      f+3     :     0.001071
      f-3     :     0.001074

 25 C s       :     3.235528  s :     3.235528
      pz      :     0.948632  p :     2.804290
      px      :     0.939672
      py      :     0.915986
      dz2     :     0.009141  d :     0.083472
      dxz     :     0.009080
      dyz     :     0.021829
      dx2y2   :     0.022239
      dxy     :     0.021182
      f0      :     0.000588  f :     0.006855
      f+1     :     0.000713
      f-1     :     0.000987
      f+2     :     0.001347
      f-2     :     0.000860
      f+3     :     0.000838
      f-3     :     0.001521

 26 C s       :     3.245330  s :     3.245330
      pz      :     0.953355  p :     2.810409
      px      :     0.956285
      py      :     0.900769
      dz2     :     0.009517  d :     0.077215
      dxz     :     0.008087
      dyz     :     0.020692
      dx2y2   :     0.020220
      dxy     :     0.018698
      f0      :     0.000577  f :     0.006671
      f+1     :     0.000755
      f-1     :     0.000959
      f+2     :     0.001340
      f-2     :     0.000823
      f+3     :     0.000848
      f-3     :     0.001368

 27 H s       :     0.828770  s :     0.828770
      pz      :     0.006719  p :     0.022107
      px      :     0.005821
      py      :     0.009567

 28 C s       :     3.234408  s :     3.234408
      pz      :     0.949770  p :     2.807581
      px      :     0.932958
      py      :     0.924853
      dz2     :     0.011959  d :     0.076543
      dxz     :     0.008889
      dyz     :     0.019104
      dx2y2   :     0.016631
      dxy     :     0.019960
      f0      :     0.000836  f :     0.006703
      f+1     :     0.001201
      f-1     :     0.000317
      f+2     :     0.001139
      f-2     :     0.001117
      f+3     :     0.001005
      f-3     :     0.001089

 29 H s       :     0.866043  s :     0.866043
      pz      :     0.007769  p :     0.021544
      px      :     0.009639
      py      :     0.004135

 30 C s       :     3.212147  s :     3.212147
      pz      :     0.932285  p :     2.794867
      px      :     0.928394
      py      :     0.934188
      dz2     :     0.019288  d :     0.076391
      dxz     :     0.012532
      dyz     :     0.011742
      dx2y2   :     0.017242
      dxy     :     0.015586
      f0      :     0.000429  f :     0.006678
      f+1     :     0.001299
      f-1     :     0.000987
      f+2     :     0.001111
      f-2     :     0.001036
      f+3     :     0.000835
      f-3     :     0.000981

 31 H s       :     0.868891  s :     0.868891
      pz      :     0.008008  p :     0.021411
      px      :     0.009411
      py      :     0.003992

 32 H s       :     0.868192  s :     0.868192
      pz      :     0.006685  p :     0.021425
      px      :     0.005929
      py      :     0.008811

 33 H s       :     0.867190  s :     0.867190
      pz      :     0.004383  p :     0.021378
      px      :     0.005016
      py      :     0.011979



                     *******************************
                     * LOEWDIN POPULATION ANALYSIS *
                     *******************************

----------------------
LOEWDIN ATOMIC CHARGES
----------------------
   0 P :    0.690834
   1 C :   -0.269943
   2 C :   -0.136182
   3 C :   -0.140162
   4 C :   -0.143018
   5 H :    0.155740
   6 C :   -0.143520
   7 H :    0.149132
   8 C :   -0.141799
   9 H :    0.146637
  10 H :    0.146777
  11 H :    0.145891
  12 C :   -0.269979
  13 C :   -0.140232
  14 C :   -0.135969
  15 C :   -0.143464
  16 H :    0.149090
  17 C :   -0.142974
  18 H :    0.155753
  19 C :   -0.141654
  20 H :    0.146786
  21 H :    0.146652
  22 H :    0.145916
  23 C :   -0.269980
  24 C :   -0.135954
  25 C :   -0.140285
  26 C :   -0.142974
  27 H :    0.155737
  28 C :   -0.143549
  29 H :    0.149140
  30 C :   -0.141767
  31 H :    0.146643
  32 H :    0.146780
  33 H :    0.145898

-------------------------------
LOEWDIN REDUCED ORBITAL CHARGES
-------------------------------
  0 P s       :     4.943028  s :     4.943028
      pz      :     2.747210  p :     8.781039
      px      :     3.285871
      py      :     2.747957
      dz2     :     0.111841  d :     0.492161
      dxz     :     0.089233
      dyz     :     0.122802
      dx2y2   :     0.088599
      dxy     :     0.079686
      f0      :     0.012027  f :     0.092938
      f+1     :     0.014899
      f-1     :     0.015009
      f+2     :     0.012246
      f-2     :     0.018370
      f+3     :     0.011428
      f-3     :     0.008960

  1 C s       :     2.785555  s :     2.785555
      pz      :     0.981715  p :     2.982122
      px      :     1.003654
      py      :     0.996752
      dz2     :     0.081067  d :     0.457613
      dxz     :     0.100108
      dyz     :     0.081854
      dx2y2   :     0.097313
      dxy     :     0.097270
      f0      :     0.003574  f :     0.044654
      f+1     :     0.006422
      f-1     :     0.007421
      f+2     :     0.008579
      f-2     :     0.005474
      f+3     :     0.007254
      f-3     :     0.005931

  2 C s       :     2.780883  s :     2.780883
      pz      :     0.994218  p :     2.935285
      px      :     0.977554
      py      :     0.963514
      dz2     :     0.078202  d :     0.379485
      dxz     :     0.091812
      dyz     :     0.076176
      dx2y2   :     0.070608
      dxy     :     0.062687
      f0      :     0.005854  f :     0.040529
      f+1     :     0.006922
      f-1     :     0.005764
      f+2     :     0.006960
      f-2     :     0.005117
      f+3     :     0.005981
      f-3     :     0.003931

  3 C s       :     2.781451  s :     2.781451
      pz      :     0.993558  p :     2.936763
      px      :     0.955326
      py      :     0.987879
      dz2     :     0.083399  d :     0.381333
      dxz     :     0.067333
      dyz     :     0.097271
      dx2y2   :     0.059271
      dxy     :     0.074060
      f0      :     0.005519  f :     0.040616
      f+1     :     0.005372
      f-1     :     0.007725
      f+2     :     0.007510
      f-2     :     0.004993
      f+3     :     0.004239
      f-3     :     0.005258

  4 C s       :     2.781750  s :     2.781750
      pz      :     0.998575  p :     2.945133
      px      :     0.950939
      py      :     0.995619
      dz2     :     0.081918  d :     0.375469
      dxz     :     0.065204
      dyz     :     0.096149
      dx2y2   :     0.058358
      dxy     :     0.073839
      f0      :     0.005595  f :     0.040666
      f+1     :     0.005368
      f-1     :     0.007732
      f+2     :     0.007318
      f-2     :     0.004943
      f+3     :     0.004383
      f-3     :     0.005327

  5 H s       :     0.785371  s :     0.785371
      pz      :     0.016563  p :     0.058889
      px      :     0.013865
      py      :     0.028462

  6 C s       :     2.781355  s :     2.781355
      pz      :     0.995424  p :     2.946258
      px      :     0.990729
      py      :     0.960105
      dz2     :     0.076042  d :     0.375126
      dxz     :     0.088864
      dyz     :     0.075804
      dx2y2   :     0.071492
      dxy     :     0.062923
      f0      :     0.005821  f :     0.040780
      f+1     :     0.006846
      f-1     :     0.005736
      f+2     :     0.006962
      f-2     :     0.005165
      f+3     :     0.006219
      f-3     :     0.004032

  7 H s       :     0.793871  s :     0.793871
      pz      :     0.014657  p :     0.056998
      px      :     0.026032
      py      :     0.016309

  8 C s       :     2.781879  s :     2.781879
      pz      :     0.957889  p :     2.944908
      px      :     0.982507
      py      :     1.004512
      dz2     :     0.064614  d :     0.374232
      dxz     :     0.067366
      dyz     :     0.070362
      dx2y2   :     0.082797
      dxy     :     0.089094
      f0      :     0.002316  f :     0.040779
      f+1     :     0.005805
      f-1     :     0.007290
      f+2     :     0.007257
      f-2     :     0.005087
      f+3     :     0.007361
      f-3     :     0.005663

  9 H s       :     0.796900  s :     0.796900
      pz      :     0.014573  p :     0.056463
      px      :     0.025262
      py      :     0.016628

 10 H s       :     0.796768  s :     0.796768
      pz      :     0.015532  p :     0.056456
      px      :     0.014076
      py      :     0.026847

 11 H s       :     0.797602  s :     0.797602
      pz      :     0.026917  p :     0.056507
      px      :     0.015753
      py      :     0.013837

 12 C s       :     2.785515  s :     2.785515
      pz      :     1.021324  p :     2.982218
      px      :     1.022556
      py      :     0.938339
      dz2     :     0.092198  d :     0.457585
      dxz     :     0.137392
      dyz     :     0.087394
      dx2y2   :     0.070446
      dxy     :     0.070154
      f0      :     0.010115  f :     0.044662
      f+1     :     0.006360
      f-1     :     0.005893
      f+2     :     0.004757
      f-2     :     0.007016
      f+3     :     0.005555
      f-3     :     0.004966

 13 C s       :     2.781513  s :     2.781513
      pz      :     1.047573  p :     2.936748
      px      :     0.963555
      py      :     0.925620
      dz2     :     0.129786  d :     0.381358
      dxz     :     0.087154
      dyz     :     0.084529
      dx2y2   :     0.028607
      dxy     :     0.051283
      f0      :     0.008961  f :     0.040613
      f+1     :     0.006547
      f-1     :     0.006872
      f+2     :     0.006946
      f-2     :     0.006833
      f+3     :     0.001320
      f-3     :     0.003132

 14 C s       :     2.780903  s :     2.780903
      pz      :     0.997470  p :     2.934992
      px      :     0.987279
      py      :     0.950243
      dz2     :     0.087781  d :     0.379542
      dxz     :     0.107082
      dyz     :     0.051190
      dx2y2   :     0.068162
      dxy     :     0.065328
      f0      :     0.007545  f :     0.040533
      f+1     :     0.005572
      f-1     :     0.005106
      f+2     :     0.005265
      f-2     :     0.006733
      f+3     :     0.005420
      f-3     :     0.004892

 15 C s       :     2.781369  s :     2.781369
      pz      :     0.992625  p :     2.946269
      px      :     0.999308
      py      :     0.954337
      dz2     :     0.087085  d :     0.375053
      dxz     :     0.106264
      dyz     :     0.049420
      dx2y2   :     0.068670
      dxy     :     0.063614
      f0      :     0.007569  f :     0.040773
      f+1     :     0.005677
      f-1     :     0.005073
      f+2     :     0.005382
      f-2     :     0.006852
      f+3     :     0.005364
      f-3     :     0.004855

 16 H s       :     0.793904  s :     0.793904
      pz      :     0.010628  p :     0.057006
      px      :     0.028011
      py      :     0.018367

 17 C s       :     2.781750  s :     2.781750
      pz      :     1.051787  p :     2.945138
      px      :     0.960318
      py      :     0.933033
      dz2     :     0.128609  d :     0.375421
      dxz     :     0.085845
      dyz     :     0.083141
      dx2y2   :     0.027097
      dxy     :     0.050728
      f0      :     0.008985  f :     0.040666
      f+1     :     0.006484
      f-1     :     0.006886
      f+2     :     0.006961
      f-2     :     0.006883
      f+3     :     0.001351
      f-3     :     0.003115

 18 H s       :     0.785372  s :     0.785372
      pz      :     0.030835  p :     0.058874
      px      :     0.016024
      py      :     0.012015

 19 C s       :     2.781894  s :     2.781894
      pz      :     1.008906  p :     2.944743
      px      :     1.003664
      py      :     0.932173
      dz2     :     0.076477  d :     0.374240
      dxz     :     0.107652
      dyz     :     0.079269
      dx2y2   :     0.056208
      dxy     :     0.054635
      f0      :     0.009043  f :     0.040777
      f+1     :     0.006088
      f-1     :     0.005870
      f+2     :     0.003427
      f-2     :     0.006441
      f+3     :     0.005361
      f-3     :     0.004547

 20 H s       :     0.796756  s :     0.796756
      pz      :     0.028384  p :     0.056459
      px      :     0.016175
      py      :     0.011900

 21 H s       :     0.796883  s :     0.796883
      pz      :     0.010961  p :     0.056465
      px      :     0.027210
      py      :     0.018294

 22 H s       :     0.797580  s :     0.797580
      pz      :     0.023901  p :     0.056505
      px      :     0.014311
      py      :     0.018293

 23 C s       :     2.785547  s :     2.785547
      pz      :     0.959215  p :     2.982160
      px      :     0.995852
      py      :     1.027093
      dz2     :     0.082269  d :     0.457619
      dxz     :     0.066362
      dyz     :     0.077494
      dx2y2   :     0.106597
      dxy     :     0.124898
      f0      :     0.004027  f :     0.044654
      f+1     :     0.005077
      f-1     :     0.005898
      f+2     :     0.006762
      f-2     :     0.008004
      f+3     :     0.006553
      f-3     :     0.008333

 24 C s       :     2.780860  s :     2.780860
      pz      :     0.946567  p :     2.935084
      px      :     0.964712
      py      :     1.023804
      dz2     :     0.045539  d :     0.379480
      dxz     :     0.047198
      dyz     :     0.096801
      dx2y2   :     0.082197
      dxy     :     0.107744
      f0      :     0.005344  f :     0.040531
      f+1     :     0.004779
      f-1     :     0.003212
      f+2     :     0.006124
      f-2     :     0.006463
      f+3     :     0.006984
      f-3     :     0.007625

 25 C s       :     2.781482  s :     2.781482
      pz      :     0.930184  p :     2.936842
      px      :     0.948638
      py      :     1.058020
      dz2     :     0.039256  d :     0.381348
      dxz     :     0.049997
      dyz     :     0.089256
      dx2y2   :     0.111147
      dxy     :     0.091692
      f0      :     0.004160  f :     0.040612
      f+1     :     0.002193
      f-1     :     0.006511
      f+2     :     0.005590
      f-2     :     0.006377
      f+3     :     0.006134
      f-3     :     0.009648

 26 C s       :     2.781743  s :     2.781743
      pz      :     0.938155  p :     2.945105
      px      :     0.946617
      py      :     1.060334
      dz2     :     0.039122  d :     0.375458
      dxz     :     0.049831
      dyz     :     0.091213
      dx2y2   :     0.106119
      dxy     :     0.089174
      f0      :     0.004136  f :     0.040667
      f+1     :     0.002357
      f-1     :     0.006590
      f+2     :     0.005727
      f-2     :     0.006415
      f+3     :     0.006006
      f-3     :     0.009437

 27 H s       :     0.785367  s :     0.785367
      pz      :     0.017994  p :     0.058896
      px      :     0.015815
      py      :     0.025087

 28 C s       :     2.781360  s :     2.781360
      pz      :     0.948263  p :     2.946295
      px      :     0.976735
      py      :     1.021297
      dz2     :     0.046256  d :     0.375116
      dxz     :     0.047060
      dyz     :     0.093868
      dx2y2   :     0.081811
      dxy     :     0.106122
      f0      :     0.005426  f :     0.040778
      f+1     :     0.004933
      f-1     :     0.003175
      f+2     :     0.006091
      f-2     :     0.006490
      f+3     :     0.006979
      f-3     :     0.007684

 29 H s       :     0.793859  s :     0.793859
      pz      :     0.020759  p :     0.057001
      px      :     0.025017
      py      :     0.011225

 30 C s       :     2.781880  s :     2.781880
      pz      :     0.966549  p :     2.944870
      px      :     0.981730
      py      :     0.996591
      dz2     :     0.077027  d :     0.374238
      dxz     :     0.062131
      dyz     :     0.059866
      dx2y2   :     0.093703
      dxy     :     0.081511
      f0      :     0.003680  f :     0.040779
      f+1     :     0.005129
      f-1     :     0.005849
      f+2     :     0.006284
      f-2     :     0.007539
      f+3     :     0.005440
      f-3     :     0.006858

 31 H s       :     0.796894  s :     0.796894
      pz      :     0.020848  p :     0.056463
      px      :     0.024308
      py      :     0.011308

 32 H s       :     0.796763  s :     0.796763
      pz      :     0.017610  p :     0.056457
      px      :     0.015916
      py      :     0.022931

 33 H s       :     0.797595  s :     0.797595
      pz      :     0.012076  p :     0.056507
      px      :     0.013680
      py      :     0.030750



                      *****************************
                      * MAYER POPULATION ANALYSIS *
                      *****************************

  NA   - Mulliken gross atomic population
  ZA   - Total nuclear charge
  QA   - Mulliken gross atomic charge
  VA   - Mayer's total valence
  BVA  - Mayer's bonded valence
  FA   - Mayer's free valence

  ATOM       NA         ZA         QA         VA         BVA        FA
  0 P     14.9505    15.0000     0.0495     3.3044     3.3044     0.0000
  1 C      5.9918     6.0000     0.0082     3.7991     3.7991    -0.0000
  2 C      6.1335     6.0000    -0.1335     3.8402     3.8402     0.0000
  3 C      6.1297     6.0000    -0.1297     3.9051     3.9051     0.0000
  4 C      6.1393     6.0000    -0.1393     3.9190     3.9190     0.0000
  5 H      0.8510     1.0000     0.1490     0.9579     0.9579    -0.0000
  6 C      6.1255     6.0000    -0.1255     3.9091     3.9091     0.0000
  7 H      0.8877     1.0000     0.1123     0.9770     0.9770    -0.0000
  8 C      6.0901     6.0000    -0.0901     3.8655     3.8655     0.0000
  9 H      0.8903     1.0000     0.1097     0.9699     0.9699    -0.0000
 10 H      0.8896     1.0000     0.1104     0.9680     0.9680    -0.0000
 11 H      0.8886     1.0000     0.1114     0.9668     0.9668     0.0000
 12 C      5.9922     6.0000     0.0078     3.7994     3.7994     0.0000
 13 C      6.1292     6.0000    -0.1292     3.9048     3.9048     0.0000
 14 C      6.1337     6.0000    -0.1337     3.8399     3.8399     0.0000
 15 C      6.1257     6.0000    -0.1257     3.9095     3.9095     0.0000
 16 H      0.8875     1.0000     0.1125     0.9771     0.9771     0.0000
 17 C      6.1388     6.0000    -0.1388     3.9180     3.9180     0.0000
 18 H      0.8510     1.0000     0.1490     0.9577     0.9577     0.0000
 19 C      6.0899     6.0000    -0.0899     3.8654     3.8654     0.0000
 20 H      0.8896     1.0000     0.1104     0.9680     0.9680    -0.0000
 21 H      0.8902     1.0000     0.1098     0.9699     0.9699     0.0000
 22 H      0.8885     1.0000     0.1115     0.9668     0.9668    -0.0000
 23 C      5.9915     6.0000     0.0085     3.7985     3.7985     0.0000
 24 C      6.1326     6.0000    -0.1326     3.8409     3.8409    -0.0000
 25 C      6.1301     6.0000    -0.1301     3.9049     3.9049    -0.0000
 26 C      6.1396     6.0000    -0.1396     3.9192     3.9192     0.0000
 27 H      0.8509     1.0000     0.1491     0.9576     0.9576    -0.0000
 28 C      6.1252     6.0000    -0.1252     3.9084     3.9084    -0.0000
 29 H      0.8876     1.0000     0.1124     0.9770     0.9770    -0.0000
 30 C      6.0901     6.0000    -0.0901     3.8652     3.8652     0.0000
 31 H      0.8903     1.0000     0.1097     0.9699     0.9699     0.0000
 32 H      0.8896     1.0000     0.1104     0.9680     0.9680    -0.0000
 33 H      0.8886     1.0000     0.1114     0.9668     0.9668     0.0000

  Mayer bond orders larger than 0.100000
B(  0-P ,  1-C ) :   0.9633 B(  0-P , 12-C ) :   0.9630 B(  0-P , 23-C ) :   0.9633 
B(  1-C ,  2-C ) :   1.3172 B(  1-C ,  3-C ) :   1.3303 B(  2-C ,  4-C ) :   1.3941 
B(  2-C ,  5-H ) :   0.9429 B(  3-C ,  6-C ) :   1.4068 B(  3-C ,  7-H ) :   0.9597 
B(  4-C ,  8-C ) :   1.3839 B(  4-C ,  9-H ) :   0.9668 B(  6-C ,  8-C ) :   1.3745 
B(  6-C , 10-H ) :   0.9659 B(  8-C , 11-H ) :   0.9623 B( 12-C , 13-C ) :   1.3308 
B( 12-C , 14-C ) :   1.3167 B( 13-C , 15-C ) :   1.4066 B( 13-C , 16-H ) :   0.9596 
B( 14-C , 17-C ) :   1.3939 B( 14-C , 18-H ) :   0.9431 B( 15-C , 19-C ) :   1.3750 
B( 15-C , 20-H ) :   0.9660 B( 17-C , 19-C ) :   1.3834 B( 17-C , 21-H ) :   0.9667 
B( 19-C , 22-H ) :   0.9623 B( 23-C , 24-C ) :   1.3176 B( 23-C , 25-C ) :   1.3299 
B( 24-C , 26-C ) :   1.3945 B( 24-C , 27-H ) :   0.9425 B( 25-C , 28-C ) :   1.4065 
B( 25-C , 29-H ) :   0.9598 B( 26-C , 30-C ) :   1.3836 B( 26-C , 31-H ) :   0.9668 
B( 28-C , 30-C ) :   1.3745 B( 28-C , 32-H ) :   0.9660 B( 30-C , 33-H ) :   0.9624 


-------
TIMINGS
-------

Total SCF time: 0 days 0 hours 2 min 27 sec 

Total time                  ....     147.248 sec
Sum of individual times     ....     139.312 sec  ( 94.6%)

SCF preparation             ....       0.133 sec  (  0.1%)
Fock matrix formation       ....     136.445 sec  ( 92.7%)
  Startup                   ....       0.028 sec  (  0.0% of F)
  Split-RI-J                ....      40.713 sec  ( 29.8% of F)
  XC integration            ....     103.518 sec  ( 75.9% of F)
    XC Preparation          ....       0.000 sec  (  0.0% of XC)
    Basis function eval.    ....      27.753 sec  ( 26.8% of XC)
    Density eval.           ....      36.126 sec  ( 34.9% of XC)
    XC-Functional eval.     ....       1.734 sec  (  1.7% of XC)
    XC-Potential eval.      ....      36.770 sec  ( 35.5% of XC)
Diagonalization             ....       0.000 sec  (  0.0%)
Density matrix formation    ....       0.155 sec  (  0.1%)
Total Energy calculation    ....       0.032 sec  (  0.0%)
Population analysis         ....       0.087 sec  (  0.1%)
Orbital Transformation      ....       0.314 sec  (  0.2%)
Orbital Orthonormalization  ....       0.000 sec  (  0.0%)
DIIS solution               ....       1.266 sec  (  0.9%)
SOSCF solution              ....       0.879 sec  (  0.6%)
Finished LeanSCF after 147.3 sec

Maximum memory used throughout the entire LEANSCF-calculation: 137.0 MB

-------------------------   --------------------
FINAL SINGLE POINT ENERGY     -1036.582473560826
-------------------------   --------------------


------------------------------------------------------------------------------
                              ORCA PROPERTY CALCULATIONS
------------------------------------------------------------------------------

GBWName                                 ... TPhP_def2tzvp.gbw
Number of atoms                         ...     34
Number of basis functions               ...    685
Max core memory                         ...   4096 MB

Electric properties:
Dipole moment                           ... YES
Quadrupole moment                       ...  NO
Static polarizability (Dipole/Dipole)   ...  NO
Static polarizability (Dipole/Quad.)    ...  NO
Static polarizability (Quad./Quad.)     ...  NO
Static polarizability (Velocity)        ...  NO
Static hyperpolarizability              ...  NO

Atomic electric properties:
Dipole moment                           ...  NO
Quadrupole moment                       ...  NO
Static polarizability                   ...  NO

Choice of electric origin               ... Center of mass
Position of electric origin             ...    -6.606413     2.543509    -0.156330

General magnetic properties:
Magnetizability                         ...  NO

EPR properties:
g-Tensor (aka g-matrix)                 ...  NO
Zero-Field splitting spin-orbit         ...  NO
Zero-field splitting spin-spin          ...  NO
Hyperfine couplings                     ...  NO (   0 nuclei)
Quadrupole couplings                    ...  NO (   0 nuclei)
Contact density                         ...  NO (   0 nuclei)

NMR properties:
Chemical shifts                         ...  NO (   0 nuclei)
Spin-rotation constants                 ...  NO (   0 nuclei)
Spin-spin couplings                     ...  NO (   0 nuclei,    0 pairs)

Choice of magnetic origin               ... GIAO
Position of magnetic origin             ...     0.000000     0.000000     0.000000

Properties with geometric perturbations:
SCF Hessian                             ...  NO
IR spectrum                             ...  NO
VCD spectrum                            ...  NO
X-ray spectroscopy properties:
SCF XES/XAS/RIXS spectra                ...  NO

SCF SOC stabilization energy            ...  NO
Diagonal Born-Oppenheimer correction    ...  NO

-------------
DIPOLE MOMENT
-------------

Method             : SCF
Type of density    : Electron Density
Multiplicity       :   1
Irrep              :   0
Energy             : -1036.5824735608262017 Eh
Basis              : AO
                                X                 Y                 Z
Electronic contribution:      5.262669161      -0.328402182      -0.253589960
Nuclear contribution   :     -5.777322139       0.358900583       0.281653746
                        -----------------------------------------
Total Dipole Moment    :     -0.514652978       0.030498401       0.028063786
                        -----------------------------------------
Magnitude (a.u.)       :      0.516319104
Magnitude (Debye)      :      1.312378865



--------------------
Rotational spectrum 
--------------------
 
Rotational constants in cm-1:             0.011624             0.011615             0.006845 
Rotational constants in MHz :           348.479865           348.201264           205.208374 

Dipole components along the rotational axes: 
x,y,z [a.u.] :    -0.002751    -0.001522     0.516310 
x,y,z [Debye]:    -0.006992    -0.003869     1.312355 

 

Dipole moment calculation done in   0.0 sec 

Maximum memory used throughout the entire PROP-calculation: 93.2 MB

--------------------------------
SUGGESTED CITATIONS FOR THIS RUN
--------------------------------

Below you find a list of papers that are relevant to this ORCA run
We neither can nor want to force you to cite these papers, but we appreciate if you do
You receive ORCA, which is the product of decades of hard work by many enthusiastic individuals, for free
The only thing we kindly ask in return is that you cite our papers,
We deeply appreciate it, if you show your appreciation for ORCA by not just citing the generic ORCA reference.

Please note that relegating all ORCA citations to the supporting information does *not* help us.
SI sections are not indexed - citations you put there will not count into any citation statistics
But we need these citations in order to attract the funding resources that allow us to do what we are doing

Therefore, if you are a happy ORCA user, please consider citing a few of the papers listed below in the main body of your paper

In addition to the list printed below, the program has created the file TPhP_def2tzvp.bibtex that contains the list in bibtex format
You can import this file easily into all common literature databanks and citation aid programs

It goes without saying that in many instances, there are alternative algorithms to achieve similar
results as the ones you have gotten from ORCA. It is, of course, also the case that in some instances
ORCA just re-implements algorithms worked out by others. We are fully aware of that and we are also
fully appreciative of our colleagues work. Hence this citation list should not be read as indicating
that the listed papers, which are focused on our own work, are the only ones worth citing. It simply
meant to make it easier for users to cite ORCA specific papers. It is not a substitute for doing your
own literature research and citing the relevant literature in a scientifically appropriate manner.

List of essential papers. We consider these as the minimum necessary citations

  1. Neese, F.
     Software update: the ORCA program system, version 6.0
     WIRES Comput. Molec. Sci. 2025 15(1), e70019
     doi.org/10.1002/wcms.70019

List of papers to cite with high priority. The work reported in these papers was absolutely
necessary for this run to complete.
Our perspective: the developers of density functionals and basis sets usually get cited in chemistry papers
Good! But without the algorithms to do something with them, the functionals or basis sets would not do anything.
Hence, in our opinion, the algorithm design and method developments papers are equally worthy of getting cited

  1. Neese, F.
     An improvement of the resolution of the identity approximation for the formation of the Coulomb matrix
     J. Comp. Chem. 2003 24(14), 1740-1747
     doi.org/10.1002/jcc.10318
  2. Neese, F.
     The SHARK Integral Generation and Digestion System
     J. Comp. Chem. 2022 44(3), 381
     doi.org/10.1002/jcc.26942

List of suggested additional citations. These are papers that are important in the 'surrounding' of 
of this run, or papers that preceded the highly important papers. If you like your results we are grateful for a citation.

  1. Neese, F.
     The ORCA program system
     WIRES Comput. Molec. Sci. 2012 2(1), 73-78
     doi.org/10.1002/wcms.81
  2. Neese, F.
     Software update: the ORCA program system, version 4.0
     WIRES Comput. Molec. Sci. 2018 8(1), 1-6
     doi.org/10.1002/wcms.1327
  3. Neese, F.; Wennmohs, F.; Becker, U.; Riplinger, C.
     The ORCA quantum chemistry program package
     J. Chem. Phys. 2020 152(22), 224108
     doi.org/10.1063/5.0004608
  4. Neese, F.
     Software update: The ORCA program system—Version 5.0
     WIRES Comput. Molec. Sci. 2022 12(1), e1606
     doi.org/10.1002/wcms.1606

List of optional additional citations

  1. Neese, F.
     Approximate second-order SCF convergence for spin unrestricted wavefunctions
     Chem. Phys. Lett. 2000 325(1-3), 93-98
     doi.org/10.1016/s0009-2614(00)00662-x

Timings for individual modules:

Sum of individual times          ...      155.719 sec (=   2.595 min)
Startup calculation              ...        5.093 sec (=   0.085 min)   3.3 %
SCF iterations                   ...      150.501 sec (=   2.508 min)  96.6 %
Property calculations            ...        0.125 sec (=   0.002 min)   0.1 %
                             ****ORCA TERMINATED NORMALLY****
TOTAL RUN TIME: 0 days 0 hours 2 minutes 35 seconds 819 msec
