
                                 *****************
                                 * O   R   C   A *
                                 *****************

                                            #,                                       
                                            ###                                      
                                            ####                                     
                                            #####                                    
                                            ######                                   
                                           ########,                                 
                                     ,,################,,,,,                         
                               ,,#################################,,                 
                          ,,##########################################,,             
                       ,#########################################, ''#####,          
                    ,#############################################,,   '####,        
                  ,##################################################,,,,####,       
                ,###########''''           ''''###############################       
              ,#####''   ,,,,##########,,,,          '''####'''          '####       
            ,##' ,,,,###########################,,,                        '##       
           ' ,,###''''                  '''############,,,                           
         ,,##''                                '''############,,,,        ,,,,,,###''
      ,#''                                            '''#######################'''  
     '                                                          ''''####''''         
             ,#######,   #######,   ,#######,      ##                                
            ,#'     '#,  ##    ##  ,#'     '#,    #''#        ,####,    ,#,          
            ##       ##  ##   ,#'  ##            #'  '#       #'       ,# #          
            ##       ##  #######   ##           ,######,      #####,      #          
            '#,     ,#'  ##    ##  '#,     ,#' ,#      #,     #,   #      #          
             '#######'   ##     ##  '#######'  #'      '#     '####' #    #          



                #########################################################
                #                        -***-                          #
                #          Department of theory and spectroscopy        #
                #                                                       #
                #                      Frank Neese                      #
                #                                                       #
                #     Directorship, Architecture, Infrastructure        #
                #                    SHARK, DRIVERS                     #
                #        Core code/Algorithms in most modules           #
                #                                                       #
                #        Max Planck Institute fuer Kohlenforschung      #
                #                Kaiser Wilhelm Platz 1                 #
                #                 D-45470 Muelheim/Ruhr                 #
                #                      Germany                          #
                #                                                       #
                #                  All rights reserved                  #
                #                        -***-                          #
                #########################################################


                         Program Version 6.1.1  -  RELEASE   -
                                (GIT: $487d211c$)
                          ($2025-11-21 10:33:24 +0100$)


 With contributions from (in alphabetic order):
[Max-Planck-Institut fuer Kohlenforschung]                               
  Daniel Aravena         : Magnetic Suceptibility                        
  Michael Atanasov       : Ab Initio Ligand Field Theory (pilot matlab implementation)
  Alexander A. Auer      : GIAO ZORA, VPT2 properties, NMR spectrum      
  Ute Becker             : All parallelization in ORCA, NUMFREQ, NUMCALC 
  Giovanni Bistoni       : ED, misc. LED, open-shell LED, HFLD           
  Dmytro Bykov           : pre 5.0 version of the SCF Hessian            
  Marcos Casanova-Páez   : Triplet and SCS-CIS(D). UHF-(DLPNO)-IP/EA/STEOM-CCSD. UHF-CVS-IP/STEOM-CCSD   
  Vijay G. Chilkuri      : MRCI spin determinant printing, contributions to CSF-ICE 
  Pauline Colinet        : FMM embedding                                 
  Dipayan Datta          : RHF DLPNO-CCSD density                        
  Achintya Kumar Dutta   : EOM-CC, STEOM-CC                              
  Nicolas Foglia         : Exact transition moments, OPA infrastructure, MCD improvements    
  Dmitry Ganyushin       : Spin-Orbit,Spin-Spin,Magnetic field MRCI      
  Miquel Garcia-Rates    : C-PCM and meta-GGA Hessian, CCSD/C-PCM, Gaussian charge scheme 
  Tiago L. C. Gouveia    : GS-ROHF, GS-ROCIS                             
  Yang Guo               : DLPNO-NEVPT2, F12-NEVPT2, CIM, IAO-localization        
  Andreas Hansen         : Spin unrestricted coupled pair/coupled cluster methods 
  Ingolf Harden          : AUTO-CI MPn and infrastructure                
  Benjamin Helmich-Paris : MC-RPA, TRAH-(SCF,CASSCF), AVAS, COSX integrals, SCF dyn. polar., MC-PDFT, srDFT 
  Lee Huntington         : MR-EOM, pCC                                   
  Robert Izsak           : Overlap fitted RIJCOSX, COSX-SCS-MP3, EOM     
  Riya Kayal             : Wick's Theorem for AUTO-CI, AUTO-CI UHF-CCSDT 
  Emily Kempfer          : AUTO-CI RHF CISDT and CCSDT, approximate NEVPT4
  Christian Kollmar      : KDIIS, OOCD, Brueckner-CCSD(T), CCSD density, CASPT2, CASPT2-K, improved NEVPT2 
  Axel Koslowski         : Symmetry handling                             
  Simone Kossmann        : meta-GGA functionals, TD-DFT gradient, OOMP2, (MP2 Hessian; deprecated post 5.0) 
  Lucas Lang             : DCDCAS, Hyperfine gauge corrections, ICE-SOC+SSC
  Marvin Lechner         : AUTO-CI (C++ implementation), FIC-MRCC        
  Spencer Leger          : CASSCF response                               
  Dagmar Lenk            : GEPOL surface, SMD, ORCA-2-JSON               
  Dimitrios Liakos       : Extrapolation schemes; Compound Job, Property file
  Dimitrios Manganas     : Further ROCIS development; embedding schemes. LFT, Crystal Embedding 
  Dimitrios Pantazis     : SARC Basis sets                               
  Anastasios Papadopoulos: AUTO-CI, single reference methods and gradients 
  Taras Petrenko         : pre 6.0 DFT Hessian and TD-DFT gradient,  ECA, NRVS 
  Petra Pikulova         : Analytic Raman intensities                    
  Peter Pinski           : DLPNO-MP2, DLPNO-MP2 Gradient                 
  Shashank Vittal Rao    : ES-AILFT, MagRelax                            
  Christoph Reimann      : Effective Core Potentials                     
  Marius Retegan         : Local ZFS, SOC                                
  Christoph Riplinger    : Optimizer, TS searches, QM/MM, DLPNO-CCSD(T), (RO)-DLPNO pert. Triples 
  Michael Roemelt        : Original ROCIS implementation, recursive CI coupling coefficients
  Masaaki Saitow         : Open-shell DLPNO-CCSD energy and density      
  Barbara Sandhoefer     : DKH picture change effects                    
  Yorick L. A. Schmerwitz: GMF and freeze-and-release deltaSCF, NEB S-IDPP initial path                    
  Kantharuban Sivalingam : CASSCF convergence/infrastructure, NEVPT2, NEVPT3, NEVPT4(SD), FIC-MRCI and CEPA variants
  Bernardo de Souza      : ESD, SOC TD-DFT                               
  Georgi L. Stoychev     : AutoAux, RI-MP2 NMR, DLPNO-MP2 response, X2C  
  Van Anh Tran           : RI-MP2 g-tensors                              
  Willem Van den Heuvel  : Paramagnetic NMR                              
  Zikuan Wang            : NOTCH, Electric field optimization            
  Frank Wennmohs         : Technical directorship and infrastructure     
  Hang Xu                : AUTO-CI-Response properties                   
                                                                         
[FACCTs GmbH]                                                            
  Markus Bursch, Nicolas Foglia, Miquel Garcia-Rates, Ingolf Harden, Hagen Neugebauer, Anastasios Papadopoulos, 
  Christoph Riplinger, Bernardo de Souza, Georgi L. Stoychev                                                    
                                                                 
  APM, various basis sets, CI-OPT, improved COSX, DLPNO-Multilevel,           
  DOCKER, DRACO, updates on ESD, Fragmentator, GOAT, IRC, LR-CPCM, L-BFGS, MBIS, meta-GGA TD-DFT gradient, ML-optimized integration grids, 
  MM, NACMEs, nearIR, NEB, NEB-TS, NL-DFT gradient (VV10), 2- and 3-layer-ONIOM, interface openCOSMO-RS, QMMM,   
  Crystal-QMMM, RESP, rigid body optimization, SF, symmetry and pop. for TD-DFT, various functionals, SOLVATOR                                   
                                                                         
[Other institutions]                                                     
  V. Asgeirsson          : NEB                                           
  Christoph Bannwarth    : sTDA-DFT, sTD-DFT, PBEh-3c, B97-3c, D3        
  Giovanni Bistoni       : ETS/NOCV, ADLD/ADEX, COVALED                  
  Martin Brehm           : Molecular dynamics                            
  Ronald Cardenas        : ETS/NOCV                                      
  Martina Colucci        : COVALED                                       
  Sebastian Ehlert       : rSCAN, r2SCAN, r2SCAN-3c, D4, dhf basis sets  
  Marvin Friede          : D4 for Fr, Ra, Ac-Lr                          
  Lars Goerigk           : TD-DFT with DH, B97 family of functionals     
  Stefan Grimme          : VdW corrections, initial TS optimization, DFT functionals, gCP, sTDA/sTD-DF 
  Waldemar Hujo          : DFT-NL                                        
  H. Jonsson             : NEB                                           
  Holger Kruse           : gCP                                           
  Marcel Mueller         : wB97X-3c, vDZP basis set                      
  Hagen Neugebauer       : wr2SCAN, Native XTB                           
  Gianluca Regni         : ADLD/ADEX                                     
  Tobias Risthaus        : pre 6.0 range-separated hybrid DFT and stability analysis
  Lukas Wittmann         : regularized MP2, r2SCAN double-hybrids, wr2SCAN        
                                                                         
We gratefully acknowledge several colleagues who have allowed us to      
interface, adapt or use parts of their codes:                            
  Ed Valeev, F. Pavosevic, A. Kumar             : LibInt (2-el integral package), F12 methods 
  Garnet Chan, S. Sharma, J. Yang, R. Olivares  : DMRG                   
  Ulf Ekstrom                                   : XCFun DFT Library      
  Mihaly Kallay                                 : mrcc  (arbitrary order and MRCC methods)
  Frank Weinhold                                : gennbo (NPA and NBO analysis)           
  Simon Mueller                                 : openCOSMO-RS                            
  Christopher J. Cramer and Donald G. Truhlar   : smd solvation model                     
  S Lehtola, MJT Oliveira, MAL Marques          : LibXC Library                           
  Liviu Ungur et al                             : ANISO software                          


 Your calculation uses the libint2 library for the computation of 2-el integrals
 For citations please refer to: http://libint.valeyev.net

 Your ORCA version has been built with support for libXC version: 7.0.0
 For citations please refer to: https://libxc.gitlab.io

 This ORCA versions uses:
   CBLAS   interface :  Fast vector & matrix operations
   LAPACKE interface :  Fast linear algebra routines
   SCALAPACK package :  Parallel linear algebra routines
   Shared memory     :  Shared parallel matrices
   BLAS/LAPACK       :  OpenBLAS 0.3.29  USE64BITINT DYNAMIC_ARCH NO_AFFINITY Haswell SINGLE_THREADED
        Core in use  :  Haswell
   Copyright (c) 2011-2014, The OpenBLAS Project


  ***********************************
  * Starting time: Thu Jul  9 11:22:11 2026
  * Host name:     ylva-work-pc
  * Process ID:    115289
  * Working dir.:  /home/ylvao/work/projects/bsse
  ***********************************

Warning: RI is on but no J-basis has been assigned. Assigning Def2/J (nothing to worry about!)
================================================================================

----- Orbital basis set information -----
Your calculation utilizes the basis: def2-QZVP
   F. Weigend and R. Ahlrichs, Phys. Chem. Chem. Phys. 7, 3297 (2005).

----- AuxJ basis set information -----
Your calculation utilizes the auxiliary basis: def2/J
   H-Rn: F. Weigend, Phys. Chem. Chem. Phys. 8, 1057 (2006).
   Fr-Lr: K. Eichkorn, F. Weigend, O. Treutler, R. Ahlrichs; Theor. Chem. Acc. 97, 119 (1997).

================================================================================
                                        WARNINGS
                       Please study these warnings very carefully!
================================================================================


================================================================================
                                       INPUT FILE
================================================================================
NAME = TPhP_def2qzvp.inp
|  1> ! BP86 def2-QZVP VeryTightSCF defgrid3
|  2> 
|  3> *xyz 0 1
|  4> P -2.29773900 1.27158900 -0.14124300
|  5> C -3.22530300 0.70179900 -1.64936100
|  6> C -4.33139200 1.37833600 -2.21045200
|  7> C -2.74699900 -0.46688100 -2.28889000
|  8> C -4.94847100 0.89146100 -3.37718100
|  9> H -4.71221100 2.29438300 -1.73196300
| 10> C -3.37293000 -0.95956000 -3.44550000
| 11> H -1.87062500 -0.99311100 -1.87421600
| 12> C -4.47484200 -0.27886400 -3.99520000
| 13> H -5.80887300 1.43169200 -3.80439000
| 14> H -2.99059000 -1.87366200 -3.92773400
| 15> H -4.95991800 -0.65793200 -4.90891700
| 16> C -3.11043600 0.29062600 1.21396600
| 17> C -2.45795100 0.27466200 2.46989300
| 18> C -4.29662600 -0.46028800 1.05552000
| 19> C -2.99006000 -0.45428600 3.54599800
| 20> H -1.51936900 0.83911200 2.60155200
| 21> C -4.82084200 -1.20115000 2.13032500
| 22> H -4.81360400 -0.46687200 0.08298900
| 23> C -4.17275300 -1.19761700 3.37775000
| 24> H -2.47174200 -0.45188800 4.51844400
| 25> H -5.74564800 -1.78410700 1.99054700
| 26> H -4.58529600 -1.77893900 4.21784000
| 27> C -2.99641600 2.97362200 0.13103400
| 28> C -4.05708100 3.26992600 1.01599300
| 29> C -2.38072700 4.03639600 -0.57255900
| 30> C -4.49613900 4.59573900 1.18472900
| 31> H -4.54269100 2.45742700 1.57915200
| 32> C -2.82951600 5.35765400 -0.41372900
| 33> H -1.53699400 3.82251300 -1.25025500
| 34> C -3.88780200 5.64147900 0.46897600
| 35> H -5.32309500 4.81131000 1.88065500
| 36> H -2.34208900 6.17235500 -0.97318500
| 37> H -4.23357800 6.67894100 0.60307100
| 38> **                         ****END OF INPUT****
================================================================================

                       ****************************
                       * Single Point Calculation *
                       ****************************

---------------------------------
CARTESIAN COORDINATES (ANGSTROEM)
---------------------------------
  P     -2.297739    1.271589   -0.141243
  C     -3.225303    0.701799   -1.649361
  C     -4.331392    1.378336   -2.210452
  C     -2.746999   -0.466881   -2.288890
  C     -4.948471    0.891461   -3.377181
  H     -4.712211    2.294383   -1.731963
  C     -3.372930   -0.959560   -3.445500
  H     -1.870625   -0.993111   -1.874216
  C     -4.474842   -0.278864   -3.995200
  H     -5.808873    1.431692   -3.804390
  H     -2.990590   -1.873662   -3.927734
  H     -4.959918   -0.657932   -4.908917
  C     -3.110436    0.290626    1.213966
  C     -2.457951    0.274662    2.469893
  C     -4.296626   -0.460288    1.055520
  C     -2.990060   -0.454286    3.545998
  H     -1.519369    0.839112    2.601552
  C     -4.820842   -1.201150    2.130325
  H     -4.813604   -0.466872    0.082989
  C     -4.172753   -1.197617    3.377750
  H     -2.471742   -0.451888    4.518444
  H     -5.745648   -1.784107    1.990547
  H     -4.585296   -1.778939    4.217840
  C     -2.996416    2.973622    0.131034
  C     -4.057081    3.269926    1.015993
  C     -2.380727    4.036396   -0.572559
  C     -4.496139    4.595739    1.184729
  H     -4.542691    2.457427    1.579152
  C     -2.829516    5.357654   -0.413729
  H     -1.536994    3.822513   -1.250255
  C     -3.887802    5.641479    0.468976
  H     -5.323095    4.811310    1.880655
  H     -2.342089    6.172355   -0.973185
  H     -4.233578    6.678941    0.603071

----------------------------
CARTESIAN COORDINATES (A.U.)
----------------------------
  NO LB      ZA    FRAG     MASS         X           Y           Z
   0 P    15.0000    0    30.974   -4.342097    2.402955   -0.266911
   1 C     6.0000    0    12.011   -6.094939    1.326208   -3.116841
   2 C     6.0000    0    12.011   -8.185145    2.604678   -4.177149
   3 C     6.0000    0    12.011   -5.191076   -0.882277   -4.325375
   4 C     6.0000    0    12.011   -9.351255    1.684617   -6.381947
   5 H     1.0000    0     1.008   -8.904788    4.335756   -3.272936
   6 C     6.0000    0    12.011   -6.373914   -1.813306   -6.511051
   7 H     1.0000    0     1.008   -3.534969   -1.876708   -3.541755
   8 C     6.0000    0    12.011   -8.456226   -0.526977   -7.549834
   9 H     1.0000    0     1.008  -10.977179    2.705506   -7.189255
  10 H     1.0000    0     1.008   -5.651396   -3.540708   -7.422342
  11 H     1.0000    0     1.008   -9.372887   -1.243311   -9.276509
  12 C     6.0000    0    12.011   -5.877872    0.549204    2.294063
  13 C     6.0000    0    12.011   -4.644854    0.519036    4.667421
  14 C     6.0000    0    12.011   -8.119446   -0.869818    1.994644
  15 C     6.0000    0    12.011   -5.650395   -0.858476    6.700965
  16 H     1.0000    0     1.008   -2.871191    1.585692    4.916221
  17 C     6.0000    0    12.011   -9.110071   -2.269845    4.025731
  18 H     1.0000    0     1.008   -9.096393   -0.882260    0.156826
  19 C     6.0000    0    12.011   -7.885360   -2.263168    6.383022
  20 H     1.0000    0     1.008   -4.670915   -0.853945    8.538622
  21 H     1.0000    0     1.008  -10.857701   -3.371474    3.761589
  22 H     1.0000    0     1.008   -8.664954   -3.361708    7.970562
  23 C     6.0000    0    12.011   -5.662406    5.619331    0.247618
  24 C     6.0000    0    12.011   -7.666772    6.179265    1.919949
  25 C     6.0000    0    12.011   -4.498922    7.627683   -1.081980
  26 C     6.0000    0    12.011   -8.496471    8.684688    2.238813
  27 H     1.0000    0     1.008   -8.584442    4.643864    2.984165
  28 C     6.0000    0    12.011   -5.347010   10.124499   -0.781835
  29 H     1.0000    0     1.008   -2.904498    7.223503   -2.362640
  30 C     6.0000    0    12.011   -7.346881   10.660850    0.886236
  31 H     1.0000    0     1.008  -10.059192    9.092058    3.553923
  32 H     1.0000    0     1.008   -4.425907   11.664061   -1.839053
  33 H     1.0000    0     1.008   -8.000303   12.621369    1.139639

--------------------------------
INTERNAL COORDINATES (ANGSTROEM)
--------------------------------
 P      0   0   0     0.000000000000     0.00000000     0.00000000
 C      1   0   0     1.859961160917     0.00000000     0.00000000
 C      2   1   0     1.412783882471   124.45548321     0.00000000
 C      2   1   3     1.415480484025   116.79236976   177.82177000
 C      3   2   1     1.406801449142   120.46857950   178.21534055
 H      3   2   1     1.101415879716   119.76440291   358.31786067
 C      4   2   1     1.404374916432   120.74002807   180.93401381
 H      4   2   1     1.103133685032   119.50294513     0.73679002
 C      5   3   2     1.405678668696   120.32978192     0.30417613
 H      5   3   2     1.102111003777   119.62190431   180.15169678
 H      7   4   2     1.101960059512   119.78709581   180.31086116
 H      9   5   3     1.101757700445   120.18054560   180.00518318
 C      1   2   3     1.859934475958   102.19975352    95.71743222
 C     13   1   2     1.415395405479   116.81162379   167.18271589
 C     13   1   2     1.412807023769   124.43501011   349.23773654
 C     14  13   1     1.404459734421   120.73561467   180.84463832
 H     14  13   1     1.103120150077   119.49611172     0.63950679
 C     15  13   1     1.406728369560   120.47139699   178.32774628
 H     15  13   1     1.101420059515   119.75476174   358.42722962
 C     18  15  13     1.405738583320   120.32292371     0.29937291
 H     16  14  13     1.101957586500   119.78976357   180.29629860
 H     18  15  13     1.102108384311   119.62820322   180.15721011
 H     20  18  15     1.101761409123   120.17686136   180.01530181
 C      1   2   3     1.859892644253   102.22233144   350.13657476
 C     24   1   2     1.412784036689   124.44792719    95.55323314
 C     24   1   2     1.415487417622   116.80320969   273.38951847
 C     25  24   1     1.406777834638   120.47131934   178.24093783
 H     25  24   1     1.101417158202   119.77335100   358.34282324
 C     26  24   1     1.404407789064   120.74067636   180.91081805
 H     26  24   1     1.103133347059   119.50357115     0.71419284
 C     27  25  24     1.405684320955   120.32990762     0.30062345
 H     27  25  24     1.102107108884   119.62120953   180.15255644
 H     29  26  24     1.101959080758   119.78733305   180.31415236
 H     31  27  25     1.101757646965   120.18071778   180.00416964

---------------------------
INTERNAL COORDINATES (A.U.)
---------------------------
 P      0   0   0     0.000000000000     0.00000000     0.00000000
 C      1   0   0     3.514817213864     0.00000000     0.00000000
 C      2   1   0     2.669774624289   124.45548321     0.00000000
 C      2   1   3     2.674870462718   116.79236976   177.82177000
 C      3   2   1     2.658469463681   120.46857950   178.21534055
 H      3   2   1     2.081374372216   119.76440291   358.31786067
 C      4   2   1     2.653883981404   120.74002807   180.93401381
 H      4   2   1     2.084620553814   119.50294513     0.73679002
 C      5   3   2     2.656347716130   120.32978192     0.30417613
 H      5   3   2     2.082687966319   119.62190431   180.15169678
 H      7   4   2     2.082402722998   119.78709581   180.31086116
 H      9   5   3     2.082020319779   120.18054560   180.00518318
 C      1   2   3     3.514766786600   102.19975352    95.71743222
 C     13   1   2     2.674709687565   116.81162379   167.18271589
 C     13   1   2     2.669818355004   124.43501011   349.23773654
 C     14  13   1     2.654044264176   120.73561467   180.84463832
 H     14  13   1     2.084594976455   119.49611172     0.63950679
 C     15  13   1     2.658331363286   120.47139699   178.32774628
 H     15  13   1     2.081382270890   119.75476174   358.42722962
 C     18  15  13     2.656460938362   120.32292371     0.29937291
 H     16  14  13     2.082398049681   119.78976357   180.29629860
 H     18  15  13     2.082683016247   119.62820322   180.15721011
 H     20  18  15     2.082027328166   120.17686136   180.01530181
 C      1   2   3     3.514687736133   102.22233144   350.13657476
 C     24   1   2     2.669774915717   124.44792719    95.55323314
 C     24   1   2     2.674883565317   116.80320969   273.38951847
 C     25  24   1     2.658424838737   120.47131934   178.24093783
 H     25  24   1     2.081376788204   119.77335100   358.34282324
 C     26  24   1     2.653946101678   120.74067636   180.91081805
 H     26  24   1     2.084619915138   119.50357115     0.71419284
 C     27  25  24     2.656358397352   120.32990762     0.30062345
 H     27  25  24     2.082680606039   119.62120953   180.15255644
 H     29  26  24     2.082400873421   119.78733305   180.31415236
 H     31  27  25     2.082020218717   120.18071778   180.00416964

---------------------
BASIS SET INFORMATION
---------------------
There are 3 groups of distinct atoms

 Group   1 Type P   : 20s14p4d2f1g contracted to 9s6p4d2f1g pattern {1031111111/821111/1111/11/1}
 Group   2 Type C   : 15s8p3d2f1g contracted to 7s4p3d2f1g pattern {8211111/5111/111/11/1}
 Group   3 Type H   : 7s3p2d1f contracted to 4s3p2d1f pattern {4111/111/11/1}

Atom   0P    basis set group =>   1
Atom   1C    basis set group =>   2
Atom   2C    basis set group =>   2
Atom   3C    basis set group =>   2
Atom   4C    basis set group =>   2
Atom   5H    basis set group =>   3
Atom   6C    basis set group =>   2
Atom   7H    basis set group =>   3
Atom   8C    basis set group =>   2
Atom   9H    basis set group =>   3
Atom  10H    basis set group =>   3
Atom  11H    basis set group =>   3
Atom  12C    basis set group =>   2
Atom  13C    basis set group =>   2
Atom  14C    basis set group =>   2
Atom  15C    basis set group =>   2
Atom  16H    basis set group =>   3
Atom  17C    basis set group =>   2
Atom  18H    basis set group =>   3
Atom  19C    basis set group =>   2
Atom  20H    basis set group =>   3
Atom  21H    basis set group =>   3
Atom  22H    basis set group =>   3
Atom  23C    basis set group =>   2
Atom  24C    basis set group =>   2
Atom  25C    basis set group =>   2
Atom  26C    basis set group =>   2
Atom  27H    basis set group =>   3
Atom  28C    basis set group =>   2
Atom  29H    basis set group =>   3
Atom  30C    basis set group =>   2
Atom  31H    basis set group =>   3
Atom  32H    basis set group =>   3
Atom  33H    basis set group =>   3
---------------------------------
AUXILIARY/J BASIS SET INFORMATION
---------------------------------
There are 3 groups of distinct atoms

 Group   1 Type P   : 14s5p5d2f1g contracted to 8s4p3d1f1g pattern {71111111/2111/311/2/1}
 Group   2 Type C   : 12s5p4d2f1g contracted to 6s4p3d1f1g pattern {711111/2111/211/2/1}
 Group   3 Type H   : 5s2p1d contracted to 3s1p1d pattern {311/2/1}

Atom   0P    basis set group =>   1
Atom   1C    basis set group =>   2
Atom   2C    basis set group =>   2
Atom   3C    basis set group =>   2
Atom   4C    basis set group =>   2
Atom   5H    basis set group =>   3
Atom   6C    basis set group =>   2
Atom   7H    basis set group =>   3
Atom   8C    basis set group =>   2
Atom   9H    basis set group =>   3
Atom  10H    basis set group =>   3
Atom  11H    basis set group =>   3
Atom  12C    basis set group =>   2
Atom  13C    basis set group =>   2
Atom  14C    basis set group =>   2
Atom  15C    basis set group =>   2
Atom  16H    basis set group =>   3
Atom  17C    basis set group =>   2
Atom  18H    basis set group =>   3
Atom  19C    basis set group =>   2
Atom  20H    basis set group =>   3
Atom  21H    basis set group =>   3
Atom  22H    basis set group =>   3
Atom  23C    basis set group =>   2
Atom  24C    basis set group =>   2
Atom  25C    basis set group =>   2
Atom  26C    basis set group =>   2
Atom  27H    basis set group =>   3
Atom  28C    basis set group =>   2
Atom  29H    basis set group =>   3
Atom  30C    basis set group =>   2
Atom  31H    basis set group =>   3
Atom  32H    basis set group =>   3
Atom  33H    basis set group =>   3
------------------------------------------------------------------------------
                             ORCA STARTUP CALCULATIONS
                           -- RI-GTO INTEGRALS CHOSEN --
------------------------------------------------------------------------------
------------------------------------------------------------------------------
                   ___                                                        
                  /   \      - P O W E R E D   B Y -                         
                 /     \                                                     
                 |  |  |   _    _      __       _____    __    __             
                 |  |  |  | |  | |    /  \     |  _  \  |  |  /  |          
                  \  \/   | |  | |   /    \    | | | |  |  | /  /          
                 / \  \   | |__| |  /  /\  \   | |_| |  |  |/  /          
                |  |  |   |  __  | /  /__\  \  |    /   |      \           
                |  |  |   | |  | | |   __   |  |    \   |  |\   \          
                \     /   | |  | | |  |  |  |  | |\  \  |  | \   \       
                 \___/    |_|  |_| |__|  |__|  |_| \__\ |__|  \__/        
                                                                              
                      - O R C A' S   B I G   F R I E N D -                    
                                      &                                       
                       - I N T E G R A L  F E E D E R -                       
                                                                              
 v1 FN, 2020, v2 2021, v3 2022-2024                                           
------------------------------------------------------------------------------


----------------------
SHARK INTEGRAL PACKAGE
----------------------

Number of atoms                             ...     34
Number of basis functions                   ...   1546
Number of shells                            ...    478
Maximum angular momentum                    ...      4
Integral batch strategy                     ... SHARK/LIBINT Hybrid
RI-J (if used) integral strategy            ... SPLIT-RIJ (Revised 2003 algorithm where possible)
Printlevel                                  ...      1
Contraction scheme used                     ... SEGMENTED contraction
Prescreening option                         ... SCHWARTZ
   Thresh                                   ... 1.000e-12
   Tcut                                     ... 1.000e-14
   Tpresel                                  ... 1.000e-14 
Coulomb Range Separation                    ... NOT USED
Exchange Range Separation                   ... NOT USED
Multipole approximations                    ... NOT USED
Finite Nucleus Model                        ... NOT USED
CABS basis                                  ... NOT available
Auxiliary Coulomb fitting basis             ... AVAILABLE
   # of basis functions in Aux-J            ...   1098
   # of shells in Aux-J                     ...    362
   Maximum angular momentum in Aux-J        ...      4
Auxiliary J/K fitting basis                 ... NOT available
Auxiliary Correlation fitting basis         ... NOT available
Auxiliary 'external' fitting basis          ... NOT available

Checking pre-screening integrals            ... done (  0.0 sec) Dimension = 478
   => SHARK Basis and OBASIS are compatible. Storing Pre-screening
Shell pair information
Shell pair cut-off parameter TPreSel        ...   1.0e-14
Total number of shell pairs                 ...    114481
Shell pairs after pre-screening             ...     78580
Total number of primitive shell pairs       ...    288530
Primitive shell pairs kept                  ...    140002
          la=0 lb=0:  12353 shell pairs
          la=1 lb=0:  17528 shell pairs
          la=1 lb=1:   6073 shell pairs
          la=2 lb=0:  11247 shell pairs
          la=2 lb=1:   7978 shell pairs
          la=2 lb=2:   2586 shell pairs
          la=3 lb=0:   6398 shell pairs
          la=3 lb=1:   4673 shell pairs
          la=3 lb=2:   2954 shell pairs
          la=3 lb=3:    878 shell pairs
          la=4 lb=0:   2369 shell pairs
          la=4 lb=1:   1706 shell pairs
          la=4 lb=2:   1101 shell pairs
          la=4 lb=3:    614 shell pairs
          la=4 lb=4:    122 shell pairs

Checking whether 4 symmetric matrices of dimension 1546 fit in memory
:Max Core in MB      =   4096.00
 MB in use           =    100.12
 MB left             =   3995.88
 MB needed           =     36.49
 Data fit in memory  = YES
Calculating RI/J V-Matrix + Cholesky decomp.... done (  0.0 sec)
Calculating Nuclear repulsion               ... done (  0.0 sec) ENN=   1393.842336547333 Eh

Diagonalization of the overlap matrix:
Smallest eigenvalue                        ... 6.404e-06
Time for diagonalization                   ...    0.527 sec
Threshold for overlap eigenvalues          ... 1.000e-07
Number of eigenvalues below threshold      ... 0
Time for construction of square roots      ...    0.366 sec
Total time needed                          ...    0.897 sec

-------------------
DFT GRID GENERATION
-------------------

General Integration Accuracy     IntAcc      ... 4.959
Radial Grid Type                 RadialGrid  ... OptM3 with GC (2021)
Angular Grid (max. ang.)         AngularGrid ... 6 (Lebedev-590)
Angular grid pruning method      GridPruning ... 4 (adaptive)
Weight generation scheme         WeightScheme... mBecke (2022)
Basis function cutoff            BFCut       ... 1.0000e-12
Integration weight cutoff        WCut        ... 1.0000e-14
Partially contracted basis set               ... off
Rotationally invariant grid construction     ... off
Angular grids for H and He will be reduced by one unit
Diffuse basis detected: some atoms will have their outermost
                        angular grid increased by 1.

Total number of grid points                  ...   408712
Total number of batches                      ...     6406
Average number of points per batch           ...       63
Average number of grid points per atom       ...    12021
Grids setup in   5.9 sec
Initializing property integral containers    ... done (  0.0 sec)

SHARK setup successfully completed in   9.4 seconds

Maximum memory used throughout the entire STARTUP-calculation: 500.7 MB
-------------------------------------------------------------------------------
                                 ORCA GUESS
                   Start orbitals & Density for SCF / CASSCF
-------------------------------------------------------------------------------

------------
SCF SETTINGS
------------
Hamiltonian:
 Density Functional     Method          .... DFT(GTOs)
 Exchange Functional    Exchange        .... B88
   X-Alpha parameter    XAlpha          ....  0.666667
   Becke's b parameter  XBeta           ....  0.004200
 Correlation Functional Correlation     .... P86
 LDA part of GGA corr.  LDAOpt          .... PW91-LDA
 Gradients option       PostSCFGGA      .... off
   NL short-range parameter             ....  4.400000
 RI-approximation to the Coulomb term is turned on
   Number of AuxJ basis functions       .... 1098


General Settings:
 Integral files         IntName         .... TPhP_def2qzvp
 Hartree-Fock type      HFTyp           .... RHF
 Total Charge           Charge          ....    0
 Multiplicity           Mult            ....    1
 Number of Electrons    NEL             ....  138
 Basis Dimension        Dim             .... 1546
 Nuclear Repulsion      ENuc            ....   1393.8423365473 Eh

Convergence Acceleration:
 AO-DIIS                CNVDIIS         .... on
   Start iteration      DIISMaxIt       ....    12
   Startup error        DIISStart       ....  0.200000
   # of expansion vecs  DIISMaxEq       ....     5
   Bias factor          DIISBfac        ....   1.050
   Max. coefficient     DIISMaxC        ....  10.000
 MO-DIIS                CNVKDIIS        .... off
 Trust-Rad. Augm. Hess. CNVTRAH         .... auto
   Auto Start mean grad. ratio tolernc. ....  1.125000
   Auto Start start iteration           ....    50
   Auto Start num. interpolation iter.  ....    10
   Max. Number of Micro iterations      ....    24
   Max. Number of Macro iterations      .... Maxiter - #DIIS iter
   Number of Davidson start vectors     ....     2
   Converg. threshold    (grad. norm)   ....   2.000e-06
   Grad. Scal. Fac. for Micro threshold ....   0.100
   Minimum threshold for Micro iter.    ....   1.000e-02
   NR start threshold (gradient norm)   ....   1.000e-04
   Initial trust radius                 ....   0.400
   Minimum AH scaling param. (alpha)    ....   1.000
   Maximum AH scaling param. (alpha)    .... 1000.000
   Quad. conv. algorithm                .... NR
   White noise on init. David. guess    .... on
   Maximum white noise                  ....   0.010
   Pseudo random numbers                .... off
   Inactive MOs                         .... canonical
   Orbital update algorithm             .... Taylor
   Preconditioner                       .... Diag
   Full preconditioner red. dimension   ....   250
 SOSCF                 CNVSOSCF           .... on
   Start iteration     SOSCFMaxIt         ....   150
   Startup grad/error  SOSCFStart         ....  0.003300
   Hessian update      SOSCFHessUp        .... L-BFGS
   Autom. constraints  SOSCFAutoConstrain .... off
 Level Shifting         CNVShift        .... on
   Level shift para.    LevelShift      ....    0.2500
   Turn off err/grad.   ShiftErr        ....    0.0010
 Zerner damping         CNVZerner       .... off
 Static damping         CNVDamp         .... on
   Fraction old density DampFac         ....    0.7000
   Max. Damping (<1)    DampMax         ....    0.9800
   Min. Damping (>=0)   DampMin         ....    0.0000
   Turn off err/grad.   DampErr         ....    0.1000

SCF Procedure:
 Maximum # iterations   MaxIter         ....   125
 SCF integral mode      SCFMode         .... Direct
   Integral package                     .... SHARK and LIBINT hybrid scheme
 Reset frequency        DirectResetFreq ....    20
 Integral Threshold     Thresh          ....  1.000e-12 Eh
 Primitive CutOff       TCut            ....  1.000e-14 Eh

Convergence Tolerance:
 Convergence Check Mode ConvCheckMode   .... Total+1el-Energy
 Convergence forced     ConvForced      .... 0
 Energy Change          TolE            ....  1.000e-09 Eh
 1-El. energy change                    ....  1.000e-06 Eh
 Orbital Gradient       TolG            ....  2.000e-06
 Orbital Rotation angle TolX            ....  2.000e-06
 DIIS Error             TolErr          ....  1.000e-08

------------------------------
INITIAL GUESS: MODEL POTENTIAL
------------------------------
Loading Hartree-Fock densities                     ... done
Calculating cut-offs                               ... done
Initializing the effective Hamiltonian             ... done
Setting up the integral package (SHARK)            ... done
Starting the Coulomb interaction                   ... done (   8.2 sec)
Making the grid                                    ... done (   0.8 sec)
Mapping shells                                     ... done
Starting the XC term evaluation                    ... done (   4.4 sec)
  promolecular density results
     # of electrons  =    137.997550445
     EX              =   -119.500256877
     EC              =     -5.083279494
     EX+EC           =   -124.583536371
Transforming the Hamiltonian                       ... done (   0.4 sec)
Diagonalizing the Hamiltonian                      ... done (   0.7 sec)
Back transforming the eigenvectors                 ... done (   0.2 sec)
Now organizing SCF variables                       ... done
                      ------------------
                      INITIAL GUESS DONE (  14.9 sec)
                      ------------------
             **** ENERGY FILE WAS UPDATED (TPhP_def2qzvp.en.tmp) ****
Finished Guess after  15.7 sec
Maximum memory used throughout the entire GUESS-calculation: 446.9 MB

-------------------------------------------------------------------------------------------
                                      ORCA LEAN-SCF
                              memory conserving SCF solver
-------------------------------------------------------------------------------------------

----------------------------------------D-I-I-S--------------------------------------------
Iteration    Energy (Eh)           Delta-E    RMSDP     MaxDP     DIISErr   Damp  Time(sec)
-------------------------------------------------------------------------------------------
               ***  Starting incremental Fock matrix formation  ***
    1    -1036.2715142458987430     0.00e+00  2.69e-04  2.69e-02  1.27e-01  0.700  58.0
    2    -1036.4528458368790780    -1.81e-01  2.13e-04  2.25e-02  5.76e-02  0.700  52.7
                               ***Turning on AO-DIIS***
    3    -1036.5169374824463375    -6.41e-02  1.13e-04  1.64e-02  1.86e-02  0.700  48.9
    4    -1036.5551656082557201    -3.82e-02  2.30e-04  4.08e-02  1.07e-02  0.000  47.8
    5    -1036.6413830521541968    -8.62e-02  4.27e-05  5.86e-03  4.85e-03  0.000  48.0
                              *** Initializing SOSCF ***
---------------------------------------S-O-S-C-F--------------------------------------
Iteration    Energy (Eh)           Delta-E    RMSDP     MaxDP     MaxGrad    Time(sec)
--------------------------------------------------------------------------------------
    6    -1036.6421386462548071    -7.56e-04  1.94e-05  2.07e-03  1.05e-03    47.2
               *** Restarting incremental Fock matrix formation ***
    7    -1036.6421825509532937    -4.39e-05  1.63e-05  2.17e-03  2.38e-04    56.2
    8    -1036.6421650307952405     1.75e-05  5.98e-06  1.21e-03  7.26e-04    40.4
    9    -1036.6421888708919141    -2.38e-05  7.29e-06  1.22e-03  1.08e-04    38.9
   10    -1036.6421876338217771     1.24e-06  2.22e-06  3.04e-04  1.50e-04    38.8
   11    -1036.6421901209705538    -2.49e-06  1.76e-06  3.06e-04  2.81e-05    39.6
   12    -1036.6421900362747692     8.47e-08  8.58e-07  1.44e-04  2.95e-05    37.1
   13    -1036.6421902106544621    -1.74e-07  2.59e-07  3.34e-05  4.18e-06    38.8
   14    -1036.6421902076699553     2.98e-09  1.10e-07  1.17e-05  8.04e-06    34.0
   15    -1036.6421902119100196    -4.24e-09  1.17e-07  1.35e-05  3.10e-06    32.7
   16    -1036.6421902099023100     2.01e-09  6.86e-08  8.41e-06  4.45e-06    33.0
   17    -1036.6421902129600312    -3.06e-09  5.69e-08  5.24e-06  5.45e-07    32.2
   18    -1036.6421902149245398    -1.96e-09  3.43e-08  3.67e-06  8.31e-07    30.9
   19    -1036.6421902136694371     1.26e-09  5.73e-08  7.54e-06  1.24e-07    30.4
                  *** Gradient check signals convergence ***

               *****************************************************
               *                     SUCCESS                       *
               *           SCF CONVERGED AFTER  19 CYCLES          *
               *****************************************************

             **** ENERGY FILE WAS UPDATED (TPhP_def2qzvp.en.tmp) ****

----------------
TOTAL SCF ENERGY
----------------

Total Energy       :      -1036.64219021140934 Eh          -28208.46809 eV

Components:
Nuclear Repulsion  :       1393.84233654733316 Eh           37928.37822 eV
Electronic Energy  :      -2430.48452675874250 Eh          -66136.84631 eV
One Electron Energy:      -4180.17820817284974 Eh         -113748.43190 eV
Two Electron Energy:       1749.69368141410723 Eh           47611.58560 eV

Virial components:
Potential Energy   :      -2068.72091599233408 Eh          -56292.75799 eV
Kinetic Energy     :       1032.07872578092451 Eh           28084.28991 eV
Virial Ratio       :          2.00442162435529

DFT components:
N(Alpha)           :       69.000000317521 electrons
N(Beta)            :       69.000000317521 electrons
N(Total)           :      138.000000635043 electrons
E(X)               :     -121.363476332022 Eh       
E(C)               :       -5.072548924635 Eh       
E(XC)              :     -126.436025256657 Eh       

---------------
SCF CONVERGENCE
---------------

  Last Energy change         ...   -1.2551e-09  Tolerance :   1.0000e-09
  Last MAX-Density change    ...    7.5447e-06  Tolerance :   1.0000e-08
  Last RMS-Density change    ...    5.7338e-08  Tolerance :   1.0000e-09
  Last DIIS Error            ...    1.0527e-03  Tolerance :   1.0000e-08
  Last Orbital Gradient      ...    1.2398e-07  Tolerance :   2.0000e-06
  Last Orbital Rotation      ...    4.9055e-07  Tolerance :   2.0000e-06


----------------
ORBITAL ENERGIES
----------------

  NO   OCC          E(Eh)            E(eV) 
   0   2.0000     -76.340678     -2077.3355 
   1   2.0000      -9.920842      -269.9598 
   2   2.0000      -9.920830      -269.9595 
   3   2.0000      -9.920809      -269.9589 
   4   2.0000      -9.914711      -269.7930 
   5   2.0000      -9.914660      -269.7916 
   6   2.0000      -9.914616      -269.7904 
   7   2.0000      -9.914184      -269.7787 
   8   2.0000      -9.914095      -269.7762 
   9   2.0000      -9.914056      -269.7752 
  10   2.0000      -9.913657      -269.7643 
  11   2.0000      -9.913598      -269.7627 
  12   2.0000      -9.913564      -269.7618 
  13   2.0000      -9.913495      -269.7599 
  14   2.0000      -9.913419      -269.7578 
  15   2.0000      -9.913393      -269.7571 
  16   2.0000      -9.913105      -269.7493 
  17   2.0000      -9.913030      -269.7473 
  18   2.0000      -9.913005      -269.7466 
  19   2.0000      -6.308259      -171.6565 
  20   2.0000      -4.523886      -123.1012 
  21   2.0000      -4.523882      -123.1011 
  22   2.0000      -4.521169      -123.0273 
  23   2.0000      -0.785779       -21.3821 
  24   2.0000      -0.778902       -21.1950 
  25   2.0000      -0.778842       -21.1934 
  26   2.0000      -0.702884       -19.1264 
  27   2.0000      -0.680647       -18.5214 
  28   2.0000      -0.680626       -18.5208 
  29   2.0000      -0.679550       -18.4915 
  30   2.0000      -0.675273       -18.3751 
  31   2.0000      -0.675252       -18.3745 
  32   2.0000      -0.589870       -16.0512 
  33   2.0000      -0.550999       -14.9934 
  34   2.0000      -0.550952       -14.9922 
  35   2.0000      -0.549434       -14.9509 
  36   2.0000      -0.540173       -14.6989 
  37   2.0000      -0.540161       -14.6985 
  38   2.0000      -0.505732       -13.7617 
  39   2.0000      -0.468383       -12.7454 
  40   2.0000      -0.468343       -12.7442 
  41   2.0000      -0.447047       -12.1648 
  42   2.0000      -0.412041       -11.2122 
  43   2.0000      -0.411996       -11.2110 
  44   2.0000      -0.409084       -11.1318 
  45   2.0000      -0.404022       -10.9940 
  46   2.0000      -0.404012       -10.9937 
  47   2.0000      -0.397323       -10.8117 
  48   2.0000      -0.378996       -10.3130 
  49   2.0000      -0.378361       -10.2957 
  50   2.0000      -0.378322       -10.2947 
  51   2.0000      -0.366838        -9.9822 
  52   2.0000      -0.366755        -9.9799 
  53   2.0000      -0.337441        -9.1822 
  54   2.0000      -0.334683        -9.1072 
  55   2.0000      -0.334592        -9.1047 
  56   2.0000      -0.327138        -8.9019 
  57   2.0000      -0.307939        -8.3794 
  58   2.0000      -0.307898        -8.3783 
  59   2.0000      -0.307232        -8.3602 
  60   2.0000      -0.289311        -7.8726 
  61   2.0000      -0.289268        -7.8714 
  62   2.0000      -0.252556        -6.8724 
  63   2.0000      -0.240886        -6.5548 
  64   2.0000      -0.240803        -6.5526 
  65   2.0000      -0.240745        -6.5510 
  66   2.0000      -0.234161        -6.3719 
  67   2.0000      -0.234144        -6.3714 
  68   2.0000      -0.196919        -5.3584 
  69   0.0000      -0.066347        -1.8054 
  70   0.0000      -0.066225        -1.8021 
  71   0.0000      -0.062498        -1.7007 
  72   0.0000      -0.050141        -1.3644 
  73   0.0000      -0.047467        -1.2916 
  74   0.0000      -0.047360        -1.2887 
  75   0.0000       0.007401         0.2014 
  76   0.0000       0.007589         0.2065 
  77   0.0000       0.008840         0.2406 
  78   0.0000       0.026917         0.7324 
  79   0.0000       0.027009         0.7349 
*Only the first 10 virtual orbitals were printed.

                    ********************************
                    * MULLIKEN POPULATION ANALYSIS *
                    ********************************

-----------------------
MULLIKEN ATOMIC CHARGES
-----------------------
   0 P :   -0.126840
   1 C :    0.138127
   2 C :   -0.061250
   3 C :   -0.097679
   4 C :   -0.145445
   5 H :    0.074464
   6 C :   -0.113575
   7 H :    0.071340
   8 C :   -0.070036
   9 H :    0.086414
  10 H :    0.082159
  11 H :    0.077421
  12 C :    0.138067
  13 C :   -0.097898
  14 C :   -0.061771
  15 C :   -0.113476
  16 H :    0.071571
  17 C :   -0.145519
  18 H :    0.075107
  19 C :   -0.069847
  20 H :    0.082190
  21 H :    0.086602
  22 H :    0.077467
  23 C :    0.139374
  24 C :   -0.062414
  25 C :   -0.097386
  26 C :   -0.145403
  27 H :    0.074905
  28 C :   -0.114207
  29 H :    0.071243
  30 C :   -0.069925
  31 H :    0.086490
  32 H :    0.082284
  33 H :    0.077445
Sum of atomic charges:   -0.0000000

--------------------------------
MULLIKEN REDUCED ORBITAL CHARGES
--------------------------------
  0 P s       :     5.872748  s :     5.872748
      pz      :     2.775796  p :     8.991100
      px      :     3.438436
      py      :     2.776868
      dz2     :     0.050568  d :     0.223863
      dxz     :     0.041036
      dyz     :     0.058222
      dx2y2   :     0.037819
      dxy     :     0.036217
      f0      :     0.006184  f :     0.035549
      f+1     :     0.004891
      f-1     :     0.005835
      f+2     :     0.005858
      f-2     :     0.004632
      f+3     :     0.004463
      f-3     :     0.003686
      g0      :     0.000318  g :     0.003581
      g+1     :     0.000405
      g-1     :     0.000400
      g+2     :     0.000400
      g-2     :     0.000730
      g+3     :     0.000381
      g-3     :     0.000325
      g+4     :     0.000266
      g-4     :     0.000356

  1 C s       :     3.332996  s :     3.332996
      pz      :     0.830697  p :     2.380245
      px      :     0.772289
      py      :     0.777259
      dz2     :     0.029938  d :     0.129998
      dxz     :     0.024204
      dyz     :     0.018626
      dx2y2   :     0.029066
      dxy     :     0.028164
      f0      :     0.001103  f :     0.017490
      f+1     :     0.003033
      f-1     :     0.003652
      f+2     :     0.003673
      f-2     :     0.001946
      f+3     :     0.002443
      f-3     :     0.001641
      g0      :     0.000139  g :     0.001144
      g+1     :     0.000070
      g-1     :     0.000085
      g+2     :     0.000098
      g-2     :     0.000133
      g+3     :     0.000178
      g-3     :     0.000166
      g+4     :     0.000164
      g-4     :     0.000112

  2 C s       :     3.358544  s :     3.358544
      pz      :     0.838460  p :     2.572840
      px      :     0.849381
      py      :     0.885000
      dz2     :     0.026335  d :     0.113133
      dxz     :     0.024924
      dyz     :     0.023478
      dx2y2   :     0.025719
      dxy     :     0.012677
      f0      :     0.002157  f :     0.015738
      f+1     :     0.002829
      f-1     :     0.002380
      f+2     :     0.003348
      f-2     :     0.001392
      f+3     :     0.002484
      f-3     :     0.001148
      g0      :     0.000138  g :     0.000995
      g+1     :     0.000119
      g-1     :     0.000072
      g+2     :     0.000126
      g-2     :     0.000153
      g+3     :     0.000125
      g-3     :     0.000111
      g+4     :     0.000079
      g-4     :     0.000072

  3 C s       :     3.367157  s :     3.367157
      pz      :     0.844185  p :     2.604118
      px      :     0.908327
      py      :     0.851606
      dz2     :     0.026276  d :     0.110244
      dxz     :     0.017122
      dyz     :     0.026882
      dx2y2   :     0.019215
      dxy     :     0.020749
      f0      :     0.002094  f :     0.015167
      f+1     :     0.001600
      f-1     :     0.003426
      f+2     :     0.002946
      f-2     :     0.001739
      f+3     :     0.001670
      f-3     :     0.001692
      g0      :     0.000127  g :     0.000993
      g+1     :     0.000090
      g-1     :     0.000105
      g+2     :     0.000161
      g-2     :     0.000129
      g+3     :     0.000122
      g-3     :     0.000133
      g+4     :     0.000082
      g-4     :     0.000044

  4 C s       :     3.337400  s :     3.337400
      pz      :     0.876653  p :     2.665674
      px      :     0.901723
      py      :     0.887298
      dz2     :     0.027156  d :     0.126764
      dxz     :     0.017465
      dyz     :     0.034728
      dx2y2   :     0.023510
      dxy     :     0.023905
      f0      :     0.001958  f :     0.014581
      f+1     :     0.001585
      f-1     :     0.003126
      f+2     :     0.002818
      f-2     :     0.001564
      f+3     :     0.001558
      f-3     :     0.001972
      g0      :     0.000133  g :     0.001025
      g+1     :     0.000096
      g-1     :     0.000106
      g+2     :     0.000158
      g-2     :     0.000138
      g+3     :     0.000119
      g-3     :     0.000129
      g+4     :     0.000093
      g-4     :     0.000052

  5 H s       :     0.878922  s :     0.878922
      pz      :     0.014950  p :     0.040874
      px      :     0.014210
      py      :     0.011713
      dz2     :     0.001271  d :     0.005429
      dxz     :     0.000626
      dyz     :     0.000947
      dx2y2   :     0.001131
      dxy     :     0.001454
      f0      :     0.000007  f :     0.000312
      f+1     :     0.000019
      f-1     :     0.000094
      f+2     :     0.000035
      f-2     :     0.000044
      f+3     :     0.000040
      f-3     :     0.000074

  6 C s       :     3.323194  s :     3.323194
      pz      :     0.876217  p :     2.649866
      px      :     0.874429
      py      :     0.899220
      dz2     :     0.023868  d :     0.125118
      dxz     :     0.030199
      dyz     :     0.024266
      dx2y2   :     0.032141
      dxy     :     0.014644
      f0      :     0.002051  f :     0.014377
      f+1     :     0.002270
      f-1     :     0.002162
      f+2     :     0.002888
      f-2     :     0.001367
      f+3     :     0.002503
      f-3     :     0.001136
      g0      :     0.000133  g :     0.001020
      g+1     :     0.000121
      g-1     :     0.000078
      g+2     :     0.000126
      g-2     :     0.000159
      g+3     :     0.000125
      g-3     :     0.000114
      g+4     :     0.000084
      g-4     :     0.000081

  7 H s       :     0.888150  s :     0.888150
      pz      :     0.013507  p :     0.035041
      px      :     0.010193
      py      :     0.011341
      dz2     :     0.000954  d :     0.005164
      dxz     :     0.001048
      dyz     :     0.000650
      dx2y2   :     0.001631
      dxy     :     0.000882
      f0      :     0.000009  f :     0.000304
      f+1     :     0.000072
      f-1     :     0.000027
      f+2     :     0.000038
      f-2     :     0.000037
      f+3     :     0.000095
      f-3     :     0.000026

  8 C s       :     3.314744  s :     3.314744
      pz      :     0.882062  p :     2.617507
      px      :     0.871121
      py      :     0.864325
      dz2     :     0.028049  d :     0.122287
      dxz     :     0.019771
      dyz     :     0.017239
      dx2y2   :     0.026204
      dxy     :     0.031024
      f0      :     0.000418  f :     0.014492
      f+1     :     0.002242
      f-1     :     0.003155
      f+2     :     0.002698
      f-2     :     0.001407
      f+3     :     0.002823
      f-3     :     0.001748
      g0      :     0.000102  g :     0.001006
      g+1     :     0.000050
      g-1     :     0.000071
      g+2     :     0.000079
      g-2     :     0.000134
      g+3     :     0.000153
      g-3     :     0.000143
      g+4     :     0.000160
      g-4     :     0.000113

  9 H s       :     0.875829  s :     0.875829
      pz      :     0.012099  p :     0.032727
      px      :     0.008460
      py      :     0.012169
      dz2     :     0.000894  d :     0.004740
      dxz     :     0.000952
      dyz     :     0.000613
      dx2y2   :     0.001538
      dxy     :     0.000743
      f0      :     0.000008  f :     0.000289
      f+1     :     0.000069
      f-1     :     0.000026
      f+2     :     0.000040
      f-2     :     0.000037
      f+3     :     0.000087
      f-3     :     0.000022

 10 H s       :     0.878906  s :     0.878906
      pz      :     0.012423  p :     0.033821
      px      :     0.013450
      py      :     0.007948
      dz2     :     0.001070  d :     0.004823
      dxz     :     0.000558
      dyz     :     0.000925
      dx2y2   :     0.001125
      dxy     :     0.001145
      f0      :     0.000006  f :     0.000292
      f+1     :     0.000016
      f-1     :     0.000089
      f+2     :     0.000034
      f-2     :     0.000043
      f+3     :     0.000029
      f-3     :     0.000075

 11 H s       :     0.883103  s :     0.883103
      pz      :     0.009266  p :     0.034302
      px      :     0.012308
      py      :     0.012729
      dz2     :     0.001552  d :     0.004877
      dxz     :     0.000900
      dyz     :     0.001150
      dx2y2   :     0.000727
      dxy     :     0.000548
      f0      :     0.000098  f :     0.000296
      f+1     :     0.000029
      f-1     :     0.000036
      f+2     :     0.000068
      f-2     :     0.000043
      f+3     :     0.000012
      f-3     :     0.000010

 12 C s       :     3.333040  s :     3.333040
      pz      :     0.754932  p :     2.380391
      px      :     0.753621
      py      :     0.871839
      dz2     :     0.018564  d :     0.129864
      dxz     :     0.039396
      dyz     :     0.031448
      dx2y2   :     0.026435
      dxy     :     0.014021
      f0      :     0.004959  f :     0.017494
      f+1     :     0.000968
      f-1     :     0.002848
      f+2     :     0.001751
      f-2     :     0.003228
      f+3     :     0.002844
      f-3     :     0.000895
      g0      :     0.000161  g :     0.001145
      g+1     :     0.000195
      g-1     :     0.000112
      g+2     :     0.000141
      g-2     :     0.000149
      g+3     :     0.000038
      g-3     :     0.000122
      g+4     :     0.000119
      g-4     :     0.000108

 13 C s       :     3.367027  s :     3.367027
      pz      :     0.814182  p :     2.604511
      px      :     0.904622
      py      :     0.885706
      dz2     :     0.039212  d :     0.110208
      dxz     :     0.017603
      dyz     :     0.023933
      dx2y2   :     0.011567
      dxy     :     0.017893
      f0      :     0.004135  f :     0.015158
      f+1     :     0.001712
      f-1     :     0.002882
      f+2     :     0.002769
      f-2     :     0.002487
      f+3     :     0.000629
      f-3     :     0.000544
      g0      :     0.000157  g :     0.000993
      g+1     :     0.000161
      g-1     :     0.000151
      g+2     :     0.000158
      g-2     :     0.000160
      g+3     :     0.000079
      g-3     :     0.000101
      g+4     :     0.000014
      g-4     :     0.000014

 14 C s       :     3.359306  s :     3.359306
      pz      :     0.860180  p :     2.572654
      px      :     0.842611
      py      :     0.869863
      dz2     :     0.025888  d :     0.113075
      dxz     :     0.036105
      dyz     :     0.013961
      dx2y2   :     0.024889
      dxy     :     0.012232
      f0      :     0.004388  f :     0.015739
      f+1     :     0.001401
      f-1     :     0.001518
      f+2     :     0.002152
      f-2     :     0.002997
      f+3     :     0.002501
      f-3     :     0.000781
      g0      :     0.000081  g :     0.000996
      g+1     :     0.000098
      g-1     :     0.000127
      g+2     :     0.000109
      g-2     :     0.000128
      g+3     :     0.000065
      g-3     :     0.000144
      g+4     :     0.000132
      g-4     :     0.000111

 15 C s       :     3.323137  s :     3.323137
      pz      :     0.882908  p :     2.649839
      px      :     0.867867
      py      :     0.899064
      dz2     :     0.031723  d :     0.125102
      dxz     :     0.039155
      dyz     :     0.011810
      dx2y2   :     0.024362
      dxy     :     0.018053
      f0      :     0.003751  f :     0.014378
      f+1     :     0.001446
      f-1     :     0.001394
      f+2     :     0.002134
      f-2     :     0.002518
      f+3     :     0.002394
      f-3     :     0.000739
      g0      :     0.000094  g :     0.001020
      g+1     :     0.000111
      g-1     :     0.000126
      g+2     :     0.000108
      g-2     :     0.000136
      g+3     :     0.000068
      g-3     :     0.000141
      g+4     :     0.000129
      g-4     :     0.000108

 16 H s       :     0.887965  s :     0.887965
      pz      :     0.013810  p :     0.034998
      px      :     0.008962
      py      :     0.012227
      dz2     :     0.000269  d :     0.005162
      dxz     :     0.001738
      dyz     :     0.000680
      dx2y2   :     0.001839
      dxy     :     0.000635
      f0      :     0.000046  f :     0.000304
      f+1     :     0.000020
      f-1     :     0.000012
      f+2     :     0.000024
      f-2     :     0.000064
      f+3     :     0.000126
      f-3     :     0.000013

 17 C s       :     3.337074  s :     3.337074
      pz      :     0.850556  p :     2.666114
      px      :     0.895264
      py      :     0.920294
      dz2     :     0.050534  d :     0.126725
      dxz     :     0.019875
      dyz     :     0.025222
      dx2y2   :     0.012075
      dxy     :     0.019018
      f0      :     0.004105  f :     0.014581
      f+1     :     0.001401
      f-1     :     0.002444
      f+2     :     0.002669
      f-2     :     0.002599
      f+3     :     0.000660
      f-3     :     0.000702
      g0      :     0.000162  g :     0.001025
      g+1     :     0.000162
      g-1     :     0.000151
      g+2     :     0.000159
      g-2     :     0.000174
      g+3     :     0.000081
      g-3     :     0.000105
      g+4     :     0.000015
      g-4     :     0.000017

 18 H s       :     0.878357  s :     0.878357
      pz      :     0.011840  p :     0.040801
      px      :     0.013063
      py      :     0.015899
      dz2     :     0.001273  d :     0.005423
      dxz     :     0.001194
      dyz     :     0.001898
      dx2y2   :     0.000501
      dxy     :     0.000558
      f0      :     0.000096  f :     0.000312
      f+1     :     0.000023
      f-1     :     0.000074
      f+2     :     0.000041
      f-2     :     0.000064
      f+3     :     0.000008
      f-3     :     0.000006

 19 C s       :     3.314769  s :     3.314769
      pz      :     0.846659  p :     2.617379
      px      :     0.862169
      py      :     0.908550
      dz2     :     0.016732  d :     0.122203
      dxz     :     0.039067
      dyz     :     0.032730
      dx2y2   :     0.022078
      dxy     :     0.011596
      f0      :     0.004083  f :     0.014490
      f+1     :     0.001084
      f-1     :     0.002218
      f+2     :     0.001373
      f-2     :     0.002799
      f+3     :     0.002348
      f-3     :     0.000585
      g0      :     0.000157  g :     0.001006
      g+1     :     0.000169
      g-1     :     0.000089
      g+2     :     0.000094
      g-2     :     0.000140
      g+3     :     0.000027
      g-3     :     0.000097
      g+4     :     0.000123
      g-4     :     0.000109

 20 H s       :     0.878876  s :     0.878876
      pz      :     0.006176  p :     0.033819
      px      :     0.012340
      py      :     0.015304
      dz2     :     0.001259  d :     0.004823
      dxz     :     0.000887
      dyz     :     0.001721
      dx2y2   :     0.000432
      dxy     :     0.000524
      f0      :     0.000095  f :     0.000292
      f+1     :     0.000018
      f-1     :     0.000072
      f+2     :     0.000034
      f-2     :     0.000060
      f+3     :     0.000007
      f-3     :     0.000007

 21 H s       :     0.875653  s :     0.875653
      pz      :     0.012503  p :     0.032717
      px      :     0.007398
      py      :     0.012816
      dz2     :     0.000222  d :     0.004739
      dxz     :     0.001498
      dyz     :     0.000659
      dx2y2   :     0.001742
      dxy     :     0.000619
      f0      :     0.000041  f :     0.000289
      f+1     :     0.000020
      f-1     :     0.000012
      f+2     :     0.000019
      f-2     :     0.000064
      f+3     :     0.000122
      f-3     :     0.000012

 22 H s       :     0.883061  s :     0.883061
      pz      :     0.008094  p :     0.034299
      px      :     0.012358
      py      :     0.013847
      dz2     :     0.001662  d :     0.004877
      dxz     :     0.000961
      dyz     :     0.000689
      dx2y2   :     0.000910
      dxy     :     0.000655
      f0      :     0.000077  f :     0.000296
      f+1     :     0.000037
      f-1     :     0.000034
      f+2     :     0.000076
      f-2     :     0.000032
      f+3     :     0.000017
      f-3     :     0.000022

 23 C s       :     3.332677  s :     3.332677
      pz      :     0.828445  p :     2.379194
      px      :     0.785779
      py      :     0.764970
      dz2     :     0.031460  d :     0.130122
      dxz     :     0.014240
      dyz     :     0.022271
      dx2y2   :     0.029815
      dxy     :     0.032334
      f0      :     0.001036  f :     0.017488
      f+1     :     0.002136
      f-1     :     0.002579
      f+2     :     0.002737
      f-2     :     0.002370
      f+3     :     0.002472
      f-3     :     0.004157
      g0      :     0.000088  g :     0.001145
      g+1     :     0.000133
      g-1     :     0.000086
      g+2     :     0.000120
      g-2     :     0.000115
      g+3     :     0.000176
      g-3     :     0.000174
      g+4     :     0.000155
      g-4     :     0.000099

 24 C s       :     3.358946  s :     3.358946
      pz      :     0.883428  p :     2.573518
      px      :     0.862362
      py      :     0.827728
      dz2     :     0.015930  d :     0.113211
      dxz     :     0.003412
      dyz     :     0.038619
      dx2y2   :     0.018079
      dxy     :     0.037171
      f0      :     0.001734  f :     0.015744
      f+1     :     0.001750
      f-1     :     0.000999
      f+2     :     0.002611
      f-2     :     0.002387
      f+3     :     0.002776
      f-3     :     0.003488
      g0      :     0.000058  g :     0.000996
      g+1     :     0.000135
      g-1     :     0.000087
      g+2     :     0.000101
      g-2     :     0.000082
      g+3     :     0.000125
      g-3     :     0.000121
      g+4     :     0.000177
      g-4     :     0.000109

 25 C s       :     3.367115  s :     3.367115
      pz      :     0.881903  p :     2.603921
      px      :     0.918087
      py      :     0.803931
      dz2     :     0.012438  d :     0.110190
      dxz     :     0.014876
      dyz     :     0.026294
      dx2y2   :     0.032072
      dxy     :     0.024510
      f0      :     0.001056  f :     0.015165
      f+1     :     0.000713
      f-1     :     0.002601
      f+2     :     0.002011
      f-2     :     0.002335
      f+3     :     0.001773
      f-3     :     0.004677
      g0      :     0.000077  g :     0.000993
      g+1     :     0.000039
      g-1     :     0.000136
      g+2     :     0.000072
      g-2     :     0.000100
      g+3     :     0.000108
      g-3     :     0.000120
      g+4     :     0.000211
      g-4     :     0.000130

 26 C s       :     3.337394  s :     3.337394
      pz      :     0.922627  p :     2.665692
      px      :     0.901492
      py      :     0.841572
      dz2     :     0.013189  d :     0.126711
      dxz     :     0.017412
      dyz     :     0.029918
      dx2y2   :     0.040651
      dxy     :     0.025542
      f0      :     0.001117  f :     0.014580
      f+1     :     0.000938
      f-1     :     0.002360
      f+2     :     0.002205
      f-2     :     0.002184
      f+3     :     0.001616
      f-3     :     0.004160
      g0      :     0.000075  g :     0.001025
      g+1     :     0.000038
      g-1     :     0.000137
      g+2     :     0.000078
      g-2     :     0.000112
      g+3     :     0.000113
      g-3     :     0.000137
      g+4     :     0.000203
      g-4     :     0.000132

 27 H s       :     0.878542  s :     0.878542
      pz      :     0.014138  p :     0.040815
      px      :     0.013373
      py      :     0.013304
      dz2     :     0.001355  d :     0.005426
      dxz     :     0.000792
      dyz     :     0.000697
      dx2y2   :     0.001609
      dxy     :     0.000973
      f0      :     0.000009  f :     0.000312
      f+1     :     0.000035
      f-1     :     0.000082
      f+2     :     0.000056
      f-2     :     0.000034
      f+3     :     0.000026
      f-3     :     0.000071

 28 C s       :     3.323292  s :     3.323292
      pz      :     0.903445  p :     2.650418
      px      :     0.881988
      py      :     0.864985
      dz2     :     0.014688  d :     0.125102
      dxz     :     0.007525
      dyz     :     0.041676
      dx2y2   :     0.019212
      dxy     :     0.042001
      f0      :     0.001737  f :     0.014375
      f+1     :     0.001779
      f-1     :     0.000902
      f+2     :     0.002198
      f-2     :     0.002371
      f+3     :     0.002186
      f-3     :     0.003203
      g0      :     0.000054  g :     0.001021
      g+1     :     0.000135
      g-1     :     0.000089
      g+2     :     0.000108
      g-2     :     0.000084
      g+3     :     0.000137
      g-3     :     0.000124
      g+4     :     0.000175
      g-4     :     0.000115

 29 H s       :     0.888232  s :     0.888232
      pz      :     0.010152  p :     0.035057
      px      :     0.010906
      py      :     0.013999
      dz2     :     0.001610  d :     0.005164
      dxz     :     0.000395
      dyz     :     0.000924
      dx2y2   :     0.000902
      dxy     :     0.001332
      f0      :     0.000027  f :     0.000304
      f+1     :     0.000092
      f-1     :     0.000013
      f+2     :     0.000033
      f-2     :     0.000062
      f+3     :     0.000036
      f-3     :     0.000039

 30 C s       :     3.314700  s :     3.314700
      pz      :     0.893389  p :     2.617513
      px      :     0.874893
      py      :     0.849231
      dz2     :     0.030181  d :     0.122213
      dxz     :     0.015546
      dyz     :     0.016904
      dx2y2   :     0.032787
      dxy     :     0.026795
      f0      :     0.000884  f :     0.014493
      f+1     :     0.001963
      f-1     :     0.002279
      f+2     :     0.002029
      f-2     :     0.002421
      f+3     :     0.001703
      f-3     :     0.003214
      g0      :     0.000061  g :     0.001006
      g+1     :     0.000128
      g-1     :     0.000058
      g+2     :     0.000113
      g-2     :     0.000136
      g+3     :     0.000163
      g-3     :     0.000189
      g+4     :     0.000092
      g-4     :     0.000066

 31 H s       :     0.875754  s :     0.875754
      pz      :     0.011963  p :     0.032726
      px      :     0.009139
      py      :     0.011624
      dz2     :     0.001553  d :     0.004741
      dxz     :     0.000370
      dyz     :     0.000863
      dx2y2   :     0.000795
      dxy     :     0.001160
      f0      :     0.000031  f :     0.000289
      f+1     :     0.000085
      f-1     :     0.000015
      f+2     :     0.000029
      f-2     :     0.000063
      f+3     :     0.000034
      f-3     :     0.000034

 32 H s       :     0.878789  s :     0.878789
      pz      :     0.012649  p :     0.033813
      px      :     0.013198
      py      :     0.007966
      dz2     :     0.001279  d :     0.004823
      dxz     :     0.000625
      dyz     :     0.000680
      dx2y2   :     0.001394
      dxy     :     0.000845
      f0      :     0.000007  f :     0.000292
      f+1     :     0.000033
      f-1     :     0.000081
      f+2     :     0.000055
      f-2     :     0.000023
      f+3     :     0.000026
      f-3     :     0.000067

 33 H s       :     0.883080  s :     0.883080
      pz      :     0.015082  p :     0.034301
      px      :     0.013332
      py      :     0.005887
      dz2     :     0.000210  d :     0.004878
      dxz     :     0.000293
      dyz     :     0.001902
      dx2y2   :     0.001007
      dxy     :     0.001466
      f0      :     0.000042  f :     0.000296
      f+1     :     0.000011
      f-1     :     0.000019
      f+2     :     0.000056
      f-2     :     0.000033
      f+3     :     0.000049
      f-3     :     0.000086



                     *******************************
                     * LOEWDIN POPULATION ANALYSIS *
                     *******************************

----------------------
LOEWDIN ATOMIC CHARGES
----------------------
   0 P :    0.639015
   1 C :   -0.220129
   2 C :    0.049701
   3 C :    0.039924
   4 C :    0.057196
   5 H :   -0.046660
   6 C :    0.056724
   7 H :   -0.048676
   8 C :    0.057972
   9 H :   -0.052900
  10 H :   -0.052709
  11 H :   -0.053608
  12 C :   -0.220163
  13 C :    0.039865
  14 C :    0.049854
  15 C :    0.056799
  16 H :   -0.048775
  17 C :    0.057258
  18 H :   -0.046568
  19 C :    0.058086
  20 H :   -0.052707
  21 H :   -0.052887
  22 H :   -0.053570
  23 C :   -0.220157
  24 C :    0.049876
  25 C :    0.039840
  26 C :    0.057252
  27 H :   -0.046656
  28 C :    0.056686
  29 H :   -0.048685
  30 C :    0.057998
  31 H :   -0.052890
  32 H :   -0.052710
  33 H :   -0.053598

-------------------------------
LOEWDIN REDUCED ORBITAL CHARGES
-------------------------------
  0 P s       :     4.864080  s :     4.864080
      pz      :     2.708778  p :     8.587576
      px      :     3.169331
      py      :     2.709467
      dz2     :     0.148987  d :     0.651017
      dxz     :     0.114772
      dyz     :     0.162010
      dx2y2   :     0.122737
      dxy     :     0.102512
      f0      :     0.036048  f :     0.236918
      f+1     :     0.032649
      f-1     :     0.039224
      f+2     :     0.035633
      f-2     :     0.041365
      f+3     :     0.026179
      f-3     :     0.025820
      g0      :     0.001782  g :     0.021394
      g+1     :     0.002590
      g-1     :     0.002451
      g+2     :     0.002559
      g-2     :     0.003072
      g+3     :     0.002676
      g-3     :     0.002367
      g+4     :     0.002231
      g-4     :     0.001667

  1 C s       :     2.629115  s :     2.629115
      pz      :     0.932842  p :     2.837873
      px      :     0.956248
      py      :     0.948783
      dz2     :     0.110226  d :     0.614170
      dxz     :     0.135553
      dyz     :     0.113297
      dx2y2   :     0.129479
      dxy     :     0.125615
      f0      :     0.010985  f :     0.127965
      f+1     :     0.019607
      f-1     :     0.023205
      f+2     :     0.024650
      f-2     :     0.013564
      f+3     :     0.020378
      f-3     :     0.015575
      g0      :     0.001158  g :     0.011004
      g+1     :     0.000762
      g-1     :     0.000828
      g+2     :     0.001142
      g-2     :     0.001342
      g+3     :     0.001616
      g-3     :     0.001527
      g+4     :     0.001530
      g-4     :     0.001101

  2 C s       :     2.599102  s :     2.599102
      pz      :     0.922246  p :     2.723997
      px      :     0.903674
      py      :     0.898078
      dz2     :     0.103512  d :     0.506286
      dxz     :     0.119567
      dyz     :     0.102623
      dx2y2   :     0.092955
      dxy     :     0.087630
      f0      :     0.015553  f :     0.110133
      f+1     :     0.018758
      f-1     :     0.015896
      f+2     :     0.020693
      f-2     :     0.011809
      f+3     :     0.017677
      f-3     :     0.009748
      g0      :     0.001081  g :     0.010780
      g+1     :     0.001214
      g-1     :     0.001056
      g+2     :     0.001638
      g-2     :     0.001570
      g+3     :     0.001426
      g-3     :     0.000993
      g+4     :     0.000828
      g-4     :     0.000973

  3 C s       :     2.599896  s :     2.599896
      pz      :     0.922653  p :     2.728153
      px      :     0.886035
      py      :     0.919465
      dz2     :     0.109495  d :     0.510768
      dxz     :     0.092373
      dyz     :     0.127930
      dx2y2   :     0.080480
      dxy     :     0.100491
      f0      :     0.014633  f :     0.110471
      f+1     :     0.013187
      f-1     :     0.022750
      f+2     :     0.021850
      f-2     :     0.011634
      f+3     :     0.011664
      f-3     :     0.014751
      g0      :     0.000985  g :     0.010789
      g+1     :     0.001212
      g-1     :     0.001166
      g+2     :     0.002041
      g-2     :     0.001230
      g+3     :     0.001155
      g-3     :     0.001377
      g+4     :     0.000835
      g-4     :     0.000788

  4 C s       :     2.603524  s :     2.603524
      pz      :     0.921899  p :     2.724709
      px      :     0.881169
      py      :     0.921642
      dz2     :     0.107526  d :     0.496217
      dxz     :     0.088997
      dyz     :     0.122876
      dx2y2   :     0.078261
      dxy     :     0.098557
      f0      :     0.014618  f :     0.107587
      f+1     :     0.012928
      f-1     :     0.022157
      f+2     :     0.020734
      f-2     :     0.011065
      f+3     :     0.011688
      f-3     :     0.014397
      g0      :     0.001022  g :     0.010767
      g+1     :     0.001214
      g-1     :     0.001141
      g+2     :     0.002005
      g-2     :     0.001189
      g+3     :     0.001153
      g-3     :     0.001327
      g+4     :     0.000910
      g-4     :     0.000807

  5 H s       :     0.781853  s :     0.781853
      pz      :     0.058864  p :     0.192868
      px      :     0.051974
      py      :     0.082030
      dz2     :     0.011345  d :     0.063140
      dxz     :     0.006254
      dyz     :     0.015402
      dx2y2   :     0.014349
      dxy     :     0.015790
      f0      :     0.000587  f :     0.008799
      f+1     :     0.000381
      f-1     :     0.002096
      f+2     :     0.001346
      f-2     :     0.001322
      f+3     :     0.001390
      f-3     :     0.001677

  6 C s       :     2.603360  s :     2.603360
      pz      :     0.919288  p :     2.725598
      px      :     0.909755
      py      :     0.896555
      dz2     :     0.100700  d :     0.495731
      dxz     :     0.114212
      dyz     :     0.100979
      dx2y2   :     0.092949
      dxy     :     0.086891
      f0      :     0.015278  f :     0.107788
      f+1     :     0.018202
      f-1     :     0.015318
      f+2     :     0.020296
      f-2     :     0.011318
      f+3     :     0.017667
      f-3     :     0.009710
      g0      :     0.001078  g :     0.010800
      g+1     :     0.001213
      g-1     :     0.001068
      g+2     :     0.001616
      g-2     :     0.001537
      g+3     :     0.001441
      g-3     :     0.000987
      g+4     :     0.000858
      g-4     :     0.001002

  7 H s       :     0.791376  s :     0.791376
      pz      :     0.053487  p :     0.186134
      px      :     0.076889
      py      :     0.055757
      dz2     :     0.009723  d :     0.062412
      dxz     :     0.014323
      dyz     :     0.007146
      dx2y2   :     0.016379
      dxy     :     0.014842
      f0      :     0.000621  f :     0.008754
      f+1     :     0.001641
      f-1     :     0.000615
      f+2     :     0.001074
      f-2     :     0.001415
      f+3     :     0.002041
      f-3     :     0.001347

  8 C s       :     2.603717  s :     2.603717
      pz      :     0.894063  p :     2.723964
      px      :     0.902814
      py      :     0.927086
      dz2     :     0.084566  d :     0.495704
      dxz     :     0.091223
      dyz     :     0.096179
      dx2y2   :     0.109160
      dxy     :     0.114577
      f0      :     0.005757  f :     0.107879
      f+1     :     0.016342
      f-1     :     0.021369
      f+2     :     0.018460
      f-2     :     0.011165
[...]
      dxy     :     0.137596
      f0      :     0.014205  f :     0.110139
      f+1     :     0.011780
      f-1     :     0.008966
      f+2     :     0.015133
      f-2     :     0.018683
      f+3     :     0.018549
      f-3     :     0.022823
      g0      :     0.000785  g :     0.010781
      g+1     :     0.001219
      g-1     :     0.000992
      g+2     :     0.001014
      g-2     :     0.000918
      g+3     :     0.001751
      g-3     :     0.001238
      g+4     :     0.001674
      g-4     :     0.001189

 25 C s       :     2.599904  s :     2.599904
      pz      :     0.846214  p :     2.728217
      px      :     0.876238
      py      :     1.005765
      dz2     :     0.055227  d :     0.510785
      dxz     :     0.068324
      dyz     :     0.118562
      dx2y2   :     0.144559
      dxy     :     0.124112
      f0      :     0.010825  f :     0.110466
      f+1     :     0.005178
      f-1     :     0.018250
      f+2     :     0.015397
      f-2     :     0.015652
      f+3     :     0.016043
      f-3     :     0.029121
      g0      :     0.001011  g :     0.010788
      g+1     :     0.000419
      g-1     :     0.001367
      g+2     :     0.000680
      g-2     :     0.001208
      g+3     :     0.001332
      g-3     :     0.001451
      g+4     :     0.001949
      g-4     :     0.001370

 26 C s       :     2.603515  s :     2.603515
      pz      :     0.855734  p :     2.724672
      px      :     0.873534
      py      :     0.995403
      dz2     :     0.054238  d :     0.496206
      dxz     :     0.067695
      dyz     :     0.119473
      dx2y2   :     0.135477
      dxy     :     0.119323
      f0      :     0.010729  f :     0.107588
      f+1     :     0.005395
      f-1     :     0.017963
      f+2     :     0.015203
      f-2     :     0.015289
      f+3     :     0.015234
      f-3     :     0.027776
      g0      :     0.000980  g :     0.010768
      g+1     :     0.000434
      g-1     :     0.001352
      g+2     :     0.000709
      g-2     :     0.001219
      g+3     :     0.001329
      g-3     :     0.001517
      g+4     :     0.001908
      g-4     :     0.001321

 27 H s       :     0.781831  s :     0.781831
      pz      :     0.060444  p :     0.192895
      px      :     0.056105
      py      :     0.076347
      dz2     :     0.012282  d :     0.063130
      dxz     :     0.008810
      dyz     :     0.013026
      dx2y2   :     0.015916
      dxy     :     0.013096
      f0      :     0.000564  f :     0.008799
      f+1     :     0.000666
      f-1     :     0.001759
      f+2     :     0.001543
      f-2     :     0.001516
      f+3     :     0.001125
      f-3     :     0.001626

 28 C s       :     2.603357  s :     2.603357
      pz      :     0.861872  p :     2.725649
      px      :     0.895377
      py      :     0.968400
      dz2     :     0.063400  d :     0.495722
      dxz     :     0.066697
      dyz     :     0.119442
      dx2y2   :     0.111175
      dxy     :     0.135008
      f0      :     0.014110  f :     0.107785
      f+1     :     0.011734
      f-1     :     0.008426
      f+2     :     0.014706
      f-2     :     0.017991
      f+3     :     0.018263
      f-3     :     0.022555
      g0      :     0.000764  g :     0.010800
      g+1     :     0.001228
      g-1     :     0.000998
      g+2     :     0.001038
      g-2     :     0.000879
      g+3     :     0.001788
      g-3     :     0.001227
      g+4     :     0.001706
      g-4     :     0.001170

 29 H s       :     0.791378  s :     0.791378
      pz      :     0.066852  p :     0.186141
      px      :     0.074777
      py      :     0.044511
      dz2     :     0.014339  d :     0.062413
      dxz     :     0.014178
      dyz     :     0.009074
      dx2y2   :     0.011145
      dxy     :     0.013676
      f0      :     0.000769  f :     0.008754
      f+1     :     0.002166
      f-1     :     0.000301
      f+2     :     0.001578
      f-2     :     0.001875
      f+3     :     0.000991
      f-3     :     0.001073

 30 C s       :     2.603714  s :     2.603714
      pz      :     0.874317  p :     2.723934
      px      :     0.897473
      py      :     0.952145
      dz2     :     0.098992  d :     0.495709
      dxz     :     0.082976
      dyz     :     0.082610
      dx2y2   :     0.122662
      dxy     :     0.108469
      f0      :     0.008247  f :     0.107880
      f+1     :     0.012487
      f-1     :     0.016592
      f+2     :     0.015813
      f-2     :     0.019814
      f+3     :     0.014295
      f-3     :     0.020632
      g0      :     0.000940  g :     0.010764
      g+1     :     0.001184
      g-1     :     0.000684
      g+2     :     0.000964
      g-2     :     0.001386
      g+3     :     0.001612
      g-3     :     0.002112
      g+4     :     0.000765
      g-4     :     0.001119

 31 H s       :     0.796466  s :     0.796466
      pz      :     0.067239  p :     0.185791
      px      :     0.074226
      py      :     0.044325
      dz2     :     0.014524  d :     0.061859
      dxz     :     0.013791
      dyz     :     0.009570
      dx2y2   :     0.010732
      dxy     :     0.013242
      f0      :     0.000835  f :     0.008775
      f+1     :     0.002138
      f-1     :     0.000349
      f+2     :     0.001589
      f-2     :     0.001928
      f+3     :     0.000939
      f-3     :     0.000997

 32 H s       :     0.796405  s :     0.796405
      pz      :     0.060385  p :     0.185684
      px      :     0.056088
      py      :     0.069210
      dz2     :     0.012032  d :     0.061841
      dxz     :     0.008647
      dyz     :     0.012761
      dx2y2   :     0.015916
      dxy     :     0.012485
      f0      :     0.000548  f :     0.008781
      f+1     :     0.000659
      f-1     :     0.001745
      f+2     :     0.001546
      f-2     :     0.001492
      f+3     :     0.001129
      f-3     :     0.001662

 33 H s       :     0.797314  s :     0.797314
      pz      :     0.048531  p :     0.185739
      px      :     0.051356
      py      :     0.085852
      dz2     :     0.005339  d :     0.061761
      dxz     :     0.002707
      dyz     :     0.018548
      dx2y2   :     0.016757
      dxy     :     0.018411
      f0      :     0.001033  f :     0.008783
      f+1     :     0.000254
      f-1     :     0.001084
      f+2     :     0.001180
      f-2     :     0.000771
      f+3     :     0.002011
      f-3     :     0.002452



                      *****************************
                      * MAYER POPULATION ANALYSIS *
                      *****************************

  NA   - Mulliken gross atomic population
  ZA   - Total nuclear charge
  QA   - Mulliken gross atomic charge
  VA   - Mayer's total valence
  BVA  - Mayer's bonded valence
  FA   - Mayer's free valence

  ATOM       NA         ZA         QA         VA         BVA        FA
  0 P     15.1268    15.0000    -0.1268     3.1060     3.1060    -0.0000
  1 C      5.8619     6.0000     0.1381     3.5976     3.5976    -0.0000
  2 C      6.0613     6.0000    -0.0613     3.6862     3.6862     0.0000
  3 C      6.0977     6.0000    -0.0977     3.7409     3.7409    -0.0000
  4 C      6.1454     6.0000    -0.1454     3.8616     3.8616    -0.0000
  5 H      0.9255     1.0000     0.0745     1.0174     1.0174    -0.0000
  6 C      6.1136     6.0000    -0.1136     3.8503     3.8503    -0.0000
  7 H      0.9287     1.0000     0.0713     1.0092     1.0092    -0.0000
  8 C      6.0700     6.0000    -0.0700     3.8539     3.8539    -0.0000
  9 H      0.9136     1.0000     0.0864     0.9965     0.9965     0.0000
 10 H      0.9178     1.0000     0.0822     0.9984     0.9984    -0.0000
 11 H      0.9226     1.0000     0.0774     0.9995     0.9995    -0.0000
 12 C      5.8619     6.0000     0.1381     3.5977     3.5977     0.0000
 13 C      6.0979     6.0000    -0.0979     3.7415     3.7415    -0.0000
 14 C      6.0618     6.0000    -0.0618     3.6859     3.6859    -0.0000
 15 C      6.1135     6.0000    -0.1135     3.8502     3.8502    -0.0000
 16 H      0.9284     1.0000     0.0716     1.0092     1.0092    -0.0000
 17 C      6.1455     6.0000    -0.1455     3.8620     3.8620    -0.0000
 18 H      0.9249     1.0000     0.0751     1.0166     1.0166    -0.0000
 19 C      6.0698     6.0000    -0.0698     3.8536     3.8536    -0.0000
 20 H      0.9178     1.0000     0.0822     0.9984     0.9984    -0.0000
 21 H      0.9134     1.0000     0.0866     0.9964     0.9964    -0.0000
 22 H      0.9225     1.0000     0.0775     0.9995     0.9995    -0.0000
 23 C      5.8606     6.0000     0.1394     3.5961     3.5961     0.0000
 24 C      6.0624     6.0000    -0.0624     3.6878     3.6878     0.0000
 25 C      6.0974     6.0000    -0.0974     3.7405     3.7405    -0.0000
 26 C      6.1454     6.0000    -0.1454     3.8616     3.8616     0.0000
 27 H      0.9251     1.0000     0.0749     1.0168     1.0168     0.0000
 28 C      6.1142     6.0000    -0.1142     3.8506     3.8506     0.0000
 29 H      0.9288     1.0000     0.0712     1.0091     1.0091     0.0000
 30 C      6.0699     6.0000    -0.0699     3.8536     3.8536    -0.0000
 31 H      0.9135     1.0000     0.0865     0.9965     0.9965     0.0000
 32 H      0.9177     1.0000     0.0823     0.9984     0.9984     0.0000
 33 H      0.9226     1.0000     0.0774     0.9995     0.9995    -0.0000

  Mayer bond orders larger than 0.100000
B(  0-P ,  1-C ) :   0.9482 B(  0-P , 12-C ) :   0.9492 B(  0-P , 23-C ) :   0.9471 
B(  1-C ,  2-C ) :   1.1987 B(  1-C ,  3-C ) :   1.2447 B(  2-C ,  4-C ) :   1.3376 
B(  2-C ,  5-H ) :   0.9417 B(  3-C ,  6-C ) :   1.3373 B(  3-C ,  7-H ) :   0.9341 
B(  4-C ,  8-C ) :   1.3565 B(  4-C ,  9-H ) :   0.9387 B(  6-C ,  8-C ) :   1.3461 
B(  6-C , 10-H ) :   0.9421 B(  8-C , 11-H ) :   0.9388 B( 12-C , 13-C ) :   1.2457 
B( 12-C , 14-C ) :   1.1969 B( 13-C , 15-C ) :   1.3370 B( 13-C , 16-H ) :   0.9339 
B( 14-C , 17-C ) :   1.3382 B( 14-C , 18-H ) :   0.9418 B( 15-C , 19-C ) :   1.3463 
B( 15-C , 20-H ) :   0.9420 B( 17-C , 19-C ) :   1.3564 B( 17-C , 21-H ) :   0.9385 
B( 19-C , 22-H ) :   0.9388 B( 23-C , 24-C ) :   1.1989 B( 23-C , 25-C ) :   1.2439 
B( 24-C , 26-C ) :   1.3380 B( 24-C , 27-H ) :   0.9416 B( 25-C , 28-C ) :   1.3372 
B( 25-C , 29-H ) :   0.9341 B( 26-C , 30-C ) :   1.3564 B( 26-C , 31-H ) :   0.9386 
B( 28-C , 30-C ) :   1.3463 B( 28-C , 32-H ) :   0.9421 B( 30-C , 33-H ) :   0.9388 


-------
TIMINGS
-------

Total SCF time: 0 days 0 hours 13 min 37 sec 

Total time                  ....     817.073 sec
Sum of individual times     ....     790.306 sec  ( 96.7%)

SCF preparation             ....       0.448 sec  (  0.1%)
Fock matrix formation       ....     754.174 sec  ( 92.3%)
  Startup                   ....       0.245 sec  (  0.0% of F)
  Split-RI-J                ....     210.428 sec  ( 27.9% of F)
  XC integration            ....     569.868 sec  ( 75.6% of F)
    XC Preparation          ....       0.000 sec  (  0.0% of XC)
    Basis function eval.    ....      94.090 sec  ( 16.5% of XC)
    Density eval.           ....     218.062 sec  ( 38.3% of XC)
    XC-Functional eval.     ....       3.053 sec  (  0.5% of XC)
    XC-Potential eval.      ....     251.224 sec  ( 44.1% of XC)
Diagonalization             ....       0.000 sec  (  0.0%)
Density matrix formation    ....       1.313 sec  (  0.2%)
Total Energy calculation    ....       0.313 sec  (  0.0%)
Population analysis         ....       0.975 sec  (  0.1%)
Orbital Transformation      ....       3.858 sec  (  0.5%)
Orbital Orthonormalization  ....       0.000 sec  (  0.0%)
DIIS solution               ....      14.497 sec  (  1.8%)
SOSCF solution              ....      14.727 sec  (  1.8%)
Finished LeanSCF after 817.1 sec

Maximum memory used throughout the entire LEANSCF-calculation: 503.4 MB

-------------------------   --------------------
FINAL SINGLE POINT ENERGY     -1036.642190211409
-------------------------   --------------------


------------------------------------------------------------------------------
                              ORCA PROPERTY CALCULATIONS
------------------------------------------------------------------------------

GBWName                                 ... TPhP_def2qzvp.gbw
Number of atoms                         ...     34
Number of basis functions               ...   1546
Max core memory                         ...   4096 MB

Electric properties:
Dipole moment                           ... YES
Quadrupole moment                       ...  NO
Static polarizability (Dipole/Dipole)   ...  NO
Static polarizability (Dipole/Quad.)    ...  NO
Static polarizability (Quad./Quad.)     ...  NO
Static polarizability (Velocity)        ...  NO
Static hyperpolarizability              ...  NO

Atomic electric properties:
Dipole moment                           ...  NO
Quadrupole moment                       ...  NO
Static polarizability                   ...  NO

Choice of electric origin               ... Center of mass
Position of electric origin             ...    -6.606413     2.543509    -0.156330

General magnetic properties:
Magnetizability                         ...  NO

EPR properties:
g-Tensor (aka g-matrix)                 ...  NO
Zero-Field splitting spin-orbit         ...  NO
Zero-field splitting spin-spin          ...  NO
Hyperfine couplings                     ...  NO (   0 nuclei)
Quadrupole couplings                    ...  NO (   0 nuclei)
Contact density                         ...  NO (   0 nuclei)

NMR properties:
Chemical shifts                         ...  NO (   0 nuclei)
Spin-rotation constants                 ...  NO (   0 nuclei)
Spin-spin couplings                     ...  NO (   0 nuclei,    0 pairs)

Choice of magnetic origin               ... GIAO
Position of magnetic origin             ...     0.000000     0.000000     0.000000

Properties with geometric perturbations:
SCF Hessian                             ...  NO
IR spectrum                             ...  NO
VCD spectrum                            ...  NO
X-ray spectroscopy properties:
SCF XES/XAS/RIXS spectra                ...  NO

SCF SOC stabilization energy            ...  NO
Diagonal Born-Oppenheimer correction    ...  NO

-------------
DIPOLE MOMENT
-------------

Method             : SCF
Type of density    : Electron Density
Multiplicity       :   1
Irrep              :   0
Energy             : -1036.6421902114093427 Eh
Basis              : AO
                                X                 Y                 Z
Electronic contribution:      5.273225750      -0.329098523      -0.254154119
Nuclear contribution   :     -5.777322139       0.358900583       0.281653746
                        -----------------------------------------
Total Dipole Moment    :     -0.504096389       0.029802061       0.027499627
                        -----------------------------------------
Magnitude (a.u.)       :      0.505724789
Magnitude (Debye)      :      1.285450257



--------------------
Rotational spectrum 
--------------------
 
Rotational constants in cm-1:             0.011624             0.011615             0.006845 
Rotational constants in MHz :           348.479865           348.201264           205.208374 

Dipole components along the rotational axes: 
x,y,z [a.u.] :    -0.002760    -0.001462     0.505715 
x,y,z [Debye]:    -0.007015    -0.003715     1.285426 

 

Dipole moment calculation done in   0.1 sec 

Maximum memory used throughout the entire PROP-calculation: 457.6 MB

--------------------------------
SUGGESTED CITATIONS FOR THIS RUN
--------------------------------

Below you find a list of papers that are relevant to this ORCA run
We neither can nor want to force you to cite these papers, but we appreciate if you do
You receive ORCA, which is the product of decades of hard work by many enthusiastic individuals, for free
The only thing we kindly ask in return is that you cite our papers,
We deeply appreciate it, if you show your appreciation for ORCA by not just citing the generic ORCA reference.

Please note that relegating all ORCA citations to the supporting information does *not* help us.
SI sections are not indexed - citations you put there will not count into any citation statistics
But we need these citations in order to attract the funding resources that allow us to do what we are doing

Therefore, if you are a happy ORCA user, please consider citing a few of the papers listed below in the main body of your paper

In addition to the list printed below, the program has created the file TPhP_def2qzvp.bibtex that contains the list in bibtex format
You can import this file easily into all common literature databanks and citation aid programs

It goes without saying that in many instances, there are alternative algorithms to achieve similar
results as the ones you have gotten from ORCA. It is, of course, also the case that in some instances
ORCA just re-implements algorithms worked out by others. We are fully aware of that and we are also
fully appreciative of our colleagues work. Hence this citation list should not be read as indicating
that the listed papers, which are focused on our own work, are the only ones worth citing. It simply
meant to make it easier for users to cite ORCA specific papers. It is not a substitute for doing your
own literature research and citing the relevant literature in a scientifically appropriate manner.

List of essential papers. We consider these as the minimum necessary citations

  1. Neese, F.
     Software update: the ORCA program system, version 6.0
     WIRES Comput. Molec. Sci. 2025 15(1), e70019
     doi.org/10.1002/wcms.70019

List of papers to cite with high priority. The work reported in these papers was absolutely
necessary for this run to complete.
Our perspective: the developers of density functionals and basis sets usually get cited in chemistry papers
Good! But without the algorithms to do something with them, the functionals or basis sets would not do anything.
Hence, in our opinion, the algorithm design and method developments papers are equally worthy of getting cited

  1. Neese, F.
     An improvement of the resolution of the identity approximation for the formation of the Coulomb matrix
     J. Comp. Chem. 2003 24(14), 1740-1747
     doi.org/10.1002/jcc.10318
  2. Neese, F.
     The SHARK Integral Generation and Digestion System
     J. Comp. Chem. 2022 44(3), 381
     doi.org/10.1002/jcc.26942

List of suggested additional citations. These are papers that are important in the 'surrounding' of 
of this run, or papers that preceded the highly important papers. If you like your results we are grateful for a citation.

  1. Neese, F.
     The ORCA program system
     WIRES Comput. Molec. Sci. 2012 2(1), 73-78
     doi.org/10.1002/wcms.81
  2. Neese, F.
     Software update: the ORCA program system, version 4.0
     WIRES Comput. Molec. Sci. 2018 8(1), 1-6
     doi.org/10.1002/wcms.1327
  3. Neese, F.; Wennmohs, F.; Becker, U.; Riplinger, C.
     The ORCA quantum chemistry program package
     J. Chem. Phys. 2020 152(22), 224108
     doi.org/10.1063/5.0004608
  4. Neese, F.
     Software update: The ORCA program system—Version 5.0
     WIRES Comput. Molec. Sci. 2022 12(1), e1606
     doi.org/10.1002/wcms.1606

List of optional additional citations

  1. Neese, F.
     Approximate second-order SCF convergence for spin unrestricted wavefunctions
     Chem. Phys. Lett. 2000 325(1-3), 93-98
     doi.org/10.1016/s0009-2614(00)00662-x

Timings for individual modules:

Sum of individual times          ...      843.017 sec (=  14.050 min)
Startup calculation              ...        9.513 sec (=   0.159 min)   1.1 %
SCF iterations                   ...      832.884 sec (=  13.881 min)  98.8 %
Property calculations            ...        0.620 sec (=   0.010 min)   0.1 %
                             ****ORCA TERMINATED NORMALLY****
TOTAL RUN TIME: 0 days 0 hours 14 minutes 3 seconds 173 msec
