
                                 *****************
                                 * O   R   C   A *
                                 *****************

                                            #,                                       
                                            ###                                      
                                            ####                                     
                                            #####                                    
                                            ######                                   
                                           ########,                                 
                                     ,,################,,,,,                         
                               ,,#################################,,                 
                          ,,##########################################,,             
                       ,#########################################, ''#####,          
                    ,#############################################,,   '####,        
                  ,##################################################,,,,####,       
                ,###########''''           ''''###############################       
              ,#####''   ,,,,##########,,,,          '''####'''          '####       
            ,##' ,,,,###########################,,,                        '##       
           ' ,,###''''                  '''############,,,                           
         ,,##''                                '''############,,,,        ,,,,,,###''
      ,#''                                            '''#######################'''  
     '                                                          ''''####''''         
             ,#######,   #######,   ,#######,      ##                                
            ,#'     '#,  ##    ##  ,#'     '#,    #''#        ,####,    ,#,          
            ##       ##  ##   ,#'  ##            #'  '#       #'       ,# #          
            ##       ##  #######   ##           ,######,      #####,      #          
            '#,     ,#'  ##    ##  '#,     ,#' ,#      #,     #,   #      #          
             '#######'   ##     ##  '#######'  #'      '#     '####' #    #          



                #########################################################
                #                        -***-                          #
                #          Department of theory and spectroscopy        #
                #                                                       #
                #                      Frank Neese                      #
                #                                                       #
                #     Directorship, Architecture, Infrastructure        #
                #                    SHARK, DRIVERS                     #
                #        Core code/Algorithms in most modules           #
                #                                                       #
                #        Max Planck Institute fuer Kohlenforschung      #
                #                Kaiser Wilhelm Platz 1                 #
                #                 D-45470 Muelheim/Ruhr                 #
                #                      Germany                          #
                #                                                       #
                #                  All rights reserved                  #
                #                        -***-                          #
                #########################################################


                         Program Version 6.1.1  -  RELEASE   -
                                (GIT: $487d211c$)
                          ($2025-11-21 10:33:24 +0100$)


 With contributions from (in alphabetic order):
[Max-Planck-Institut fuer Kohlenforschung]                               
  Daniel Aravena         : Magnetic Suceptibility                        
  Michael Atanasov       : Ab Initio Ligand Field Theory (pilot matlab implementation)
  Alexander A. Auer      : GIAO ZORA, VPT2 properties, NMR spectrum      
  Ute Becker             : All parallelization in ORCA, NUMFREQ, NUMCALC 
  Giovanni Bistoni       : ED, misc. LED, open-shell LED, HFLD           
  Dmytro Bykov           : pre 5.0 version of the SCF Hessian            
  Marcos Casanova-Páez   : Triplet and SCS-CIS(D). UHF-(DLPNO)-IP/EA/STEOM-CCSD. UHF-CVS-IP/STEOM-CCSD   
  Vijay G. Chilkuri      : MRCI spin determinant printing, contributions to CSF-ICE 
  Pauline Colinet        : FMM embedding                                 
  Dipayan Datta          : RHF DLPNO-CCSD density                        
  Achintya Kumar Dutta   : EOM-CC, STEOM-CC                              
  Nicolas Foglia         : Exact transition moments, OPA infrastructure, MCD improvements    
  Dmitry Ganyushin       : Spin-Orbit,Spin-Spin,Magnetic field MRCI      
  Miquel Garcia-Rates    : C-PCM and meta-GGA Hessian, CCSD/C-PCM, Gaussian charge scheme 
  Tiago L. C. Gouveia    : GS-ROHF, GS-ROCIS                             
  Yang Guo               : DLPNO-NEVPT2, F12-NEVPT2, CIM, IAO-localization        
  Andreas Hansen         : Spin unrestricted coupled pair/coupled cluster methods 
  Ingolf Harden          : AUTO-CI MPn and infrastructure                
  Benjamin Helmich-Paris : MC-RPA, TRAH-(SCF,CASSCF), AVAS, COSX integrals, SCF dyn. polar., MC-PDFT, srDFT 
  Lee Huntington         : MR-EOM, pCC                                   
  Robert Izsak           : Overlap fitted RIJCOSX, COSX-SCS-MP3, EOM     
  Riya Kayal             : Wick's Theorem for AUTO-CI, AUTO-CI UHF-CCSDT 
  Emily Kempfer          : AUTO-CI RHF CISDT and CCSDT, approximate NEVPT4
  Christian Kollmar      : KDIIS, OOCD, Brueckner-CCSD(T), CCSD density, CASPT2, CASPT2-K, improved NEVPT2 
  Axel Koslowski         : Symmetry handling                             
  Simone Kossmann        : meta-GGA functionals, TD-DFT gradient, OOMP2, (MP2 Hessian; deprecated post 5.0) 
  Lucas Lang             : DCDCAS, Hyperfine gauge corrections, ICE-SOC+SSC
  Marvin Lechner         : AUTO-CI (C++ implementation), FIC-MRCC        
  Spencer Leger          : CASSCF response                               
  Dagmar Lenk            : GEPOL surface, SMD, ORCA-2-JSON               
  Dimitrios Liakos       : Extrapolation schemes; Compound Job, Property file
  Dimitrios Manganas     : Further ROCIS development; embedding schemes. LFT, Crystal Embedding 
  Dimitrios Pantazis     : SARC Basis sets                               
  Anastasios Papadopoulos: AUTO-CI, single reference methods and gradients 
  Taras Petrenko         : pre 6.0 DFT Hessian and TD-DFT gradient,  ECA, NRVS 
  Petra Pikulova         : Analytic Raman intensities                    
  Peter Pinski           : DLPNO-MP2, DLPNO-MP2 Gradient                 
  Shashank Vittal Rao    : ES-AILFT, MagRelax                            
  Christoph Reimann      : Effective Core Potentials                     
  Marius Retegan         : Local ZFS, SOC                                
  Christoph Riplinger    : Optimizer, TS searches, QM/MM, DLPNO-CCSD(T), (RO)-DLPNO pert. Triples 
  Michael Roemelt        : Original ROCIS implementation, recursive CI coupling coefficients
  Masaaki Saitow         : Open-shell DLPNO-CCSD energy and density      
  Barbara Sandhoefer     : DKH picture change effects                    
  Yorick L. A. Schmerwitz: GMF and freeze-and-release deltaSCF, NEB S-IDPP initial path                    
  Kantharuban Sivalingam : CASSCF convergence/infrastructure, NEVPT2, NEVPT3, NEVPT4(SD), FIC-MRCI and CEPA variants
  Bernardo de Souza      : ESD, SOC TD-DFT                               
  Georgi L. Stoychev     : AutoAux, RI-MP2 NMR, DLPNO-MP2 response, X2C  
  Van Anh Tran           : RI-MP2 g-tensors                              
  Willem Van den Heuvel  : Paramagnetic NMR                              
  Zikuan Wang            : NOTCH, Electric field optimization            
  Frank Wennmohs         : Technical directorship and infrastructure     
  Hang Xu                : AUTO-CI-Response properties                   
                                                                         
[FACCTs GmbH]                                                            
  Markus Bursch, Nicolas Foglia, Miquel Garcia-Rates, Ingolf Harden, Hagen Neugebauer, Anastasios Papadopoulos, 
  Christoph Riplinger, Bernardo de Souza, Georgi L. Stoychev                                                    
                                                                 
  APM, various basis sets, CI-OPT, improved COSX, DLPNO-Multilevel,           
  DOCKER, DRACO, updates on ESD, Fragmentator, GOAT, IRC, LR-CPCM, L-BFGS, MBIS, meta-GGA TD-DFT gradient, ML-optimized integration grids, 
  MM, NACMEs, nearIR, NEB, NEB-TS, NL-DFT gradient (VV10), 2- and 3-layer-ONIOM, interface openCOSMO-RS, QMMM,   
  Crystal-QMMM, RESP, rigid body optimization, SF, symmetry and pop. for TD-DFT, various functionals, SOLVATOR                                   
                                                                         
[Other institutions]                                                     
  V. Asgeirsson          : NEB                                           
  Christoph Bannwarth    : sTDA-DFT, sTD-DFT, PBEh-3c, B97-3c, D3        
  Giovanni Bistoni       : ETS/NOCV, ADLD/ADEX, COVALED                  
  Martin Brehm           : Molecular dynamics                            
  Ronald Cardenas        : ETS/NOCV                                      
  Martina Colucci        : COVALED                                       
  Sebastian Ehlert       : rSCAN, r2SCAN, r2SCAN-3c, D4, dhf basis sets  
  Marvin Friede          : D4 for Fr, Ra, Ac-Lr                          
  Lars Goerigk           : TD-DFT with DH, B97 family of functionals     
  Stefan Grimme          : VdW corrections, initial TS optimization, DFT functionals, gCP, sTDA/sTD-DF 
  Waldemar Hujo          : DFT-NL                                        
  H. Jonsson             : NEB                                           
  Holger Kruse           : gCP                                           
  Marcel Mueller         : wB97X-3c, vDZP basis set                      
  Hagen Neugebauer       : wr2SCAN, Native XTB                           
  Gianluca Regni         : ADLD/ADEX                                     
  Tobias Risthaus        : pre 6.0 range-separated hybrid DFT and stability analysis
  Lukas Wittmann         : regularized MP2, r2SCAN double-hybrids, wr2SCAN        
                                                                         
We gratefully acknowledge several colleagues who have allowed us to      
interface, adapt or use parts of their codes:                            
  Ed Valeev, F. Pavosevic, A. Kumar             : LibInt (2-el integral package), F12 methods 
  Garnet Chan, S. Sharma, J. Yang, R. Olivares  : DMRG                   
  Ulf Ekstrom                                   : XCFun DFT Library      
  Mihaly Kallay                                 : mrcc  (arbitrary order and MRCC methods)
  Frank Weinhold                                : gennbo (NPA and NBO analysis)           
  Simon Mueller                                 : openCOSMO-RS                            
  Christopher J. Cramer and Donald G. Truhlar   : smd solvation model                     
  S Lehtola, MJT Oliveira, MAL Marques          : LibXC Library                           
  Liviu Ungur et al                             : ANISO software                          


 Your calculation uses the libint2 library for the computation of 2-el integrals
 For citations please refer to: http://libint.valeyev.net

 Your ORCA version has been built with support for libXC version: 7.0.0
 For citations please refer to: https://libxc.gitlab.io

 This ORCA versions uses:
   CBLAS   interface :  Fast vector & matrix operations
   LAPACKE interface :  Fast linear algebra routines
   SCALAPACK package :  Parallel linear algebra routines
   Shared memory     :  Shared parallel matrices
   BLAS/LAPACK       :  OpenBLAS 0.3.29  USE64BITINT DYNAMIC_ARCH NO_AFFINITY Haswell SINGLE_THREADED
        Core in use  :  Haswell
   Copyright (c) 2011-2014, The OpenBLAS Project


  ***********************************
  * Starting time: Thu Jul  9 11:17:20 2026
  * Host name:     ylva-work-pc
  * Process ID:    114692
  * Working dir.:  /home/ylvao/work/projects/bsse
  ***********************************

Warning: RI is on but no J-basis has been assigned. Assigning Def2/J (nothing to worry about!)
================================================================================

----- Orbital basis set information -----
Your calculation utilizes the basis: def2-SVP
   F. Weigend and R. Ahlrichs, Phys. Chem. Chem. Phys. 7, 3297 (2005).

----- AuxJ basis set information -----
Your calculation utilizes the auxiliary basis: def2/J
   H-Rn: F. Weigend, Phys. Chem. Chem. Phys. 8, 1057 (2006).
   Fr-Lr: K. Eichkorn, F. Weigend, O. Treutler, R. Ahlrichs; Theor. Chem. Acc. 97, 119 (1997).

================================================================================
                                        WARNINGS
                       Please study these warnings very carefully!
================================================================================


================================================================================
                                       INPUT FILE
================================================================================
NAME = TPhP_def2svp.inp
|  1> ! BP86 def2-SVP TightSCF defgrid3
|  2> 
|  3> *xyz 0 1
|  4> P -2.29773900 1.27158900 -0.14124300
|  5> C -3.22530300 0.70179900 -1.64936100
|  6> C -4.33139200 1.37833600 -2.21045200
|  7> C -2.74699900 -0.46688100 -2.28889000
|  8> C -4.94847100 0.89146100 -3.37718100
|  9> H -4.71221100 2.29438300 -1.73196300
| 10> C -3.37293000 -0.95956000 -3.44550000
| 11> H -1.87062500 -0.99311100 -1.87421600
| 12> C -4.47484200 -0.27886400 -3.99520000
| 13> H -5.80887300 1.43169200 -3.80439000
| 14> H -2.99059000 -1.87366200 -3.92773400
| 15> H -4.95991800 -0.65793200 -4.90891700
| 16> C -3.11043600 0.29062600 1.21396600
| 17> C -2.45795100 0.27466200 2.46989300
| 18> C -4.29662600 -0.46028800 1.05552000
| 19> C -2.99006000 -0.45428600 3.54599800
| 20> H -1.51936900 0.83911200 2.60155200
| 21> C -4.82084200 -1.20115000 2.13032500
| 22> H -4.81360400 -0.46687200 0.08298900
| 23> C -4.17275300 -1.19761700 3.37775000
| 24> H -2.47174200 -0.45188800 4.51844400
| 25> H -5.74564800 -1.78410700 1.99054700
| 26> H -4.58529600 -1.77893900 4.21784000
| 27> C -2.99641600 2.97362200 0.13103400
| 28> C -4.05708100 3.26992600 1.01599300
| 29> C -2.38072700 4.03639600 -0.57255900
| 30> C -4.49613900 4.59573900 1.18472900
| 31> H -4.54269100 2.45742700 1.57915200
| 32> C -2.82951600 5.35765400 -0.41372900
| 33> H -1.53699400 3.82251300 -1.25025500
| 34> C -3.88780200 5.64147900 0.46897600
| 35> H -5.32309500 4.81131000 1.88065500
| 36> H -2.34208900 6.17235500 -0.97318500
| 37> H -4.23357800 6.67894100 0.60307100
| 38> **                         ****END OF INPUT****
================================================================================

                       ****************************
                       * Single Point Calculation *
                       ****************************

---------------------------------
CARTESIAN COORDINATES (ANGSTROEM)
---------------------------------
  P     -2.297739    1.271589   -0.141243
  C     -3.225303    0.701799   -1.649361
  C     -4.331392    1.378336   -2.210452
  C     -2.746999   -0.466881   -2.288890
  C     -4.948471    0.891461   -3.377181
  H     -4.712211    2.294383   -1.731963
  C     -3.372930   -0.959560   -3.445500
  H     -1.870625   -0.993111   -1.874216
  C     -4.474842   -0.278864   -3.995200
  H     -5.808873    1.431692   -3.804390
  H     -2.990590   -1.873662   -3.927734
  H     -4.959918   -0.657932   -4.908917
  C     -3.110436    0.290626    1.213966
  C     -2.457951    0.274662    2.469893
  C     -4.296626   -0.460288    1.055520
  C     -2.990060   -0.454286    3.545998
  H     -1.519369    0.839112    2.601552
  C     -4.820842   -1.201150    2.130325
  H     -4.813604   -0.466872    0.082989
  C     -4.172753   -1.197617    3.377750
  H     -2.471742   -0.451888    4.518444
  H     -5.745648   -1.784107    1.990547
  H     -4.585296   -1.778939    4.217840
  C     -2.996416    2.973622    0.131034
  C     -4.057081    3.269926    1.015993
  C     -2.380727    4.036396   -0.572559
  C     -4.496139    4.595739    1.184729
  H     -4.542691    2.457427    1.579152
  C     -2.829516    5.357654   -0.413729
  H     -1.536994    3.822513   -1.250255
  C     -3.887802    5.641479    0.468976
  H     -5.323095    4.811310    1.880655
  H     -2.342089    6.172355   -0.973185
  H     -4.233578    6.678941    0.603071

----------------------------
CARTESIAN COORDINATES (A.U.)
----------------------------
  NO LB      ZA    FRAG     MASS         X           Y           Z
   0 P    15.0000    0    30.974   -4.342097    2.402955   -0.266911
   1 C     6.0000    0    12.011   -6.094939    1.326208   -3.116841
   2 C     6.0000    0    12.011   -8.185145    2.604678   -4.177149
   3 C     6.0000    0    12.011   -5.191076   -0.882277   -4.325375
   4 C     6.0000    0    12.011   -9.351255    1.684617   -6.381947
   5 H     1.0000    0     1.008   -8.904788    4.335756   -3.272936
   6 C     6.0000    0    12.011   -6.373914   -1.813306   -6.511051
   7 H     1.0000    0     1.008   -3.534969   -1.876708   -3.541755
   8 C     6.0000    0    12.011   -8.456226   -0.526977   -7.549834
   9 H     1.0000    0     1.008  -10.977179    2.705506   -7.189255
  10 H     1.0000    0     1.008   -5.651396   -3.540708   -7.422342
  11 H     1.0000    0     1.008   -9.372887   -1.243311   -9.276509
  12 C     6.0000    0    12.011   -5.877872    0.549204    2.294063
  13 C     6.0000    0    12.011   -4.644854    0.519036    4.667421
  14 C     6.0000    0    12.011   -8.119446   -0.869818    1.994644
  15 C     6.0000    0    12.011   -5.650395   -0.858476    6.700965
  16 H     1.0000    0     1.008   -2.871191    1.585692    4.916221
  17 C     6.0000    0    12.011   -9.110071   -2.269845    4.025731
  18 H     1.0000    0     1.008   -9.096393   -0.882260    0.156826
  19 C     6.0000    0    12.011   -7.885360   -2.263168    6.383022
  20 H     1.0000    0     1.008   -4.670915   -0.853945    8.538622
  21 H     1.0000    0     1.008  -10.857701   -3.371474    3.761589
  22 H     1.0000    0     1.008   -8.664954   -3.361708    7.970562
  23 C     6.0000    0    12.011   -5.662406    5.619331    0.247618
  24 C     6.0000    0    12.011   -7.666772    6.179265    1.919949
  25 C     6.0000    0    12.011   -4.498922    7.627683   -1.081980
  26 C     6.0000    0    12.011   -8.496471    8.684688    2.238813
  27 H     1.0000    0     1.008   -8.584442    4.643864    2.984165
  28 C     6.0000    0    12.011   -5.347010   10.124499   -0.781835
  29 H     1.0000    0     1.008   -2.904498    7.223503   -2.362640
  30 C     6.0000    0    12.011   -7.346881   10.660850    0.886236
  31 H     1.0000    0     1.008  -10.059192    9.092058    3.553923
  32 H     1.0000    0     1.008   -4.425907   11.664061   -1.839053
  33 H     1.0000    0     1.008   -8.000303   12.621369    1.139639

--------------------------------
INTERNAL COORDINATES (ANGSTROEM)
--------------------------------
 P      0   0   0     0.000000000000     0.00000000     0.00000000
 C      1   0   0     1.859961160917     0.00000000     0.00000000
 C      2   1   0     1.412783882471   124.45548321     0.00000000
 C      2   1   3     1.415480484025   116.79236976   177.82177000
 C      3   2   1     1.406801449142   120.46857950   178.21534055
 H      3   2   1     1.101415879716   119.76440291   358.31786067
 C      4   2   1     1.404374916432   120.74002807   180.93401381
 H      4   2   1     1.103133685032   119.50294513     0.73679002
 C      5   3   2     1.405678668696   120.32978192     0.30417613
 H      5   3   2     1.102111003777   119.62190431   180.15169678
 H      7   4   2     1.101960059512   119.78709581   180.31086116
 H      9   5   3     1.101757700445   120.18054560   180.00518318
 C      1   2   3     1.859934475958   102.19975352    95.71743222
 C     13   1   2     1.415395405479   116.81162379   167.18271589
 C     13   1   2     1.412807023769   124.43501011   349.23773654
 C     14  13   1     1.404459734421   120.73561467   180.84463832
 H     14  13   1     1.103120150077   119.49611172     0.63950679
 C     15  13   1     1.406728369560   120.47139699   178.32774628
 H     15  13   1     1.101420059515   119.75476174   358.42722962
 C     18  15  13     1.405738583320   120.32292371     0.29937291
 H     16  14  13     1.101957586500   119.78976357   180.29629860
 H     18  15  13     1.102108384311   119.62820322   180.15721011
 H     20  18  15     1.101761409123   120.17686136   180.01530181
 C      1   2   3     1.859892644253   102.22233144   350.13657476
 C     24   1   2     1.412784036689   124.44792719    95.55323314
 C     24   1   2     1.415487417622   116.80320969   273.38951847
 C     25  24   1     1.406777834638   120.47131934   178.24093783
 H     25  24   1     1.101417158202   119.77335100   358.34282324
 C     26  24   1     1.404407789064   120.74067636   180.91081805
 H     26  24   1     1.103133347059   119.50357115     0.71419284
 C     27  25  24     1.405684320955   120.32990762     0.30062345
 H     27  25  24     1.102107108884   119.62120953   180.15255644
 H     29  26  24     1.101959080758   119.78733305   180.31415236
 H     31  27  25     1.101757646965   120.18071778   180.00416964

---------------------------
INTERNAL COORDINATES (A.U.)
---------------------------
 P      0   0   0     0.000000000000     0.00000000     0.00000000
 C      1   0   0     3.514817213864     0.00000000     0.00000000
 C      2   1   0     2.669774624289   124.45548321     0.00000000
 C      2   1   3     2.674870462718   116.79236976   177.82177000
 C      3   2   1     2.658469463681   120.46857950   178.21534055
 H      3   2   1     2.081374372216   119.76440291   358.31786067
 C      4   2   1     2.653883981404   120.74002807   180.93401381
 H      4   2   1     2.084620553814   119.50294513     0.73679002
 C      5   3   2     2.656347716130   120.32978192     0.30417613
 H      5   3   2     2.082687966319   119.62190431   180.15169678
 H      7   4   2     2.082402722998   119.78709581   180.31086116
 H      9   5   3     2.082020319779   120.18054560   180.00518318
 C      1   2   3     3.514766786600   102.19975352    95.71743222
 C     13   1   2     2.674709687565   116.81162379   167.18271589
 C     13   1   2     2.669818355004   124.43501011   349.23773654
 C     14  13   1     2.654044264176   120.73561467   180.84463832
 H     14  13   1     2.084594976455   119.49611172     0.63950679
 C     15  13   1     2.658331363286   120.47139699   178.32774628
 H     15  13   1     2.081382270890   119.75476174   358.42722962
 C     18  15  13     2.656460938362   120.32292371     0.29937291
 H     16  14  13     2.082398049681   119.78976357   180.29629860
 H     18  15  13     2.082683016247   119.62820322   180.15721011
 H     20  18  15     2.082027328166   120.17686136   180.01530181
 C      1   2   3     3.514687736133   102.22233144   350.13657476
 C     24   1   2     2.669774915717   124.44792719    95.55323314
 C     24   1   2     2.674883565317   116.80320969   273.38951847
 C     25  24   1     2.658424838737   120.47131934   178.24093783
 H     25  24   1     2.081376788204   119.77335100   358.34282324
 C     26  24   1     2.653946101678   120.74067636   180.91081805
 H     26  24   1     2.084619915138   119.50357115     0.71419284
 C     27  25  24     2.656358397352   120.32990762     0.30062345
 H     27  25  24     2.082680606039   119.62120953   180.15255644
 H     29  26  24     2.082400873421   119.78733305   180.31415236
 H     31  27  25     2.082020218717   120.18071778   180.00416964

---------------------
BASIS SET INFORMATION
---------------------
There are 3 groups of distinct atoms

 Group   1 Type P   : 10s7p1d contracted to 4s3p1d pattern {5311/511/1}
 Group   2 Type C   : 7s4p1d contracted to 3s2p1d pattern {511/31/1}
 Group   3 Type H   : 4s1p contracted to 2s1p pattern {31/1}

Atom   0P    basis set group =>   1
Atom   1C    basis set group =>   2
Atom   2C    basis set group =>   2
Atom   3C    basis set group =>   2
Atom   4C    basis set group =>   2
Atom   5H    basis set group =>   3
Atom   6C    basis set group =>   2
Atom   7H    basis set group =>   3
Atom   8C    basis set group =>   2
Atom   9H    basis set group =>   3
Atom  10H    basis set group =>   3
Atom  11H    basis set group =>   3
Atom  12C    basis set group =>   2
Atom  13C    basis set group =>   2
Atom  14C    basis set group =>   2
Atom  15C    basis set group =>   2
Atom  16H    basis set group =>   3
Atom  17C    basis set group =>   2
Atom  18H    basis set group =>   3
Atom  19C    basis set group =>   2
Atom  20H    basis set group =>   3
Atom  21H    basis set group =>   3
Atom  22H    basis set group =>   3
Atom  23C    basis set group =>   2
Atom  24C    basis set group =>   2
Atom  25C    basis set group =>   2
Atom  26C    basis set group =>   2
Atom  27H    basis set group =>   3
Atom  28C    basis set group =>   2
Atom  29H    basis set group =>   3
Atom  30C    basis set group =>   2
Atom  31H    basis set group =>   3
Atom  32H    basis set group =>   3
Atom  33H    basis set group =>   3
---------------------------------
AUXILIARY/J BASIS SET INFORMATION
---------------------------------
There are 3 groups of distinct atoms

 Group   1 Type P   : 14s5p5d2f1g contracted to 8s4p3d1f1g pattern {71111111/2111/311/2/1}
 Group   2 Type C   : 12s5p4d2f1g contracted to 6s4p3d1f1g pattern {711111/2111/211/2/1}
 Group   3 Type H   : 5s2p1d contracted to 3s1p1d pattern {311/2/1}

Atom   0P    basis set group =>   1
Atom   1C    basis set group =>   2
Atom   2C    basis set group =>   2
Atom   3C    basis set group =>   2
Atom   4C    basis set group =>   2
Atom   5H    basis set group =>   3
Atom   6C    basis set group =>   2
Atom   7H    basis set group =>   3
Atom   8C    basis set group =>   2
Atom   9H    basis set group =>   3
Atom  10H    basis set group =>   3
Atom  11H    basis set group =>   3
Atom  12C    basis set group =>   2
Atom  13C    basis set group =>   2
Atom  14C    basis set group =>   2
Atom  15C    basis set group =>   2
Atom  16H    basis set group =>   3
Atom  17C    basis set group =>   2
Atom  18H    basis set group =>   3
Atom  19C    basis set group =>   2
Atom  20H    basis set group =>   3
Atom  21H    basis set group =>   3
Atom  22H    basis set group =>   3
Atom  23C    basis set group =>   2
Atom  24C    basis set group =>   2
Atom  25C    basis set group =>   2
Atom  26C    basis set group =>   2
Atom  27H    basis set group =>   3
Atom  28C    basis set group =>   2
Atom  29H    basis set group =>   3
Atom  30C    basis set group =>   2
Atom  31H    basis set group =>   3
Atom  32H    basis set group =>   3
Atom  33H    basis set group =>   3
------------------------------------------------------------------------------
                             ORCA STARTUP CALCULATIONS
                           -- RI-GTO INTEGRALS CHOSEN --
------------------------------------------------------------------------------
------------------------------------------------------------------------------
                   ___                                                        
                  /   \      - P O W E R E D   B Y -                         
                 /     \                                                     
                 |  |  |   _    _      __       _____    __    __             
                 |  |  |  | |  | |    /  \     |  _  \  |  |  /  |          
                  \  \/   | |  | |   /    \    | | | |  |  | /  /          
                 / \  \   | |__| |  /  /\  \   | |_| |  |  |/  /          
                |  |  |   |  __  | /  /__\  \  |    /   |      \           
                |  |  |   | |  | | |   __   |  |    \   |  |\   \          
                \     /   | |  | | |  |  |  |  | |\  \  |  | \   \       
                 \___/    |_|  |_| |__|  |__|  |_| \__\ |__|  \__/        
                                                                              
                      - O R C A' S   B I G   F R I E N D -                    
                                      &                                       
                       - I N T E G R A L  F E E D E R -                       
                                                                              
 v1 FN, 2020, v2 2021, v3 2022-2024                                           
------------------------------------------------------------------------------


----------------------
SHARK INTEGRAL PACKAGE
----------------------

Number of atoms                             ...     34
Number of basis functions                   ...    345
Number of shells                            ...    161
Maximum angular momentum                    ...      2
Integral batch strategy                     ... SHARK/LIBINT Hybrid
RI-J (if used) integral strategy            ... SPLIT-RIJ (Revised 2003 algorithm where possible)
Printlevel                                  ...      1
Contraction scheme used                     ... SEGMENTED contraction
Prescreening option                         ... SCHWARTZ
   Thresh                                   ... 2.500e-11
   Tcut                                     ... 2.500e-12
   Tpresel                                  ... 2.500e-12 
Coulomb Range Separation                    ... NOT USED
Exchange Range Separation                   ... NOT USED
Multipole approximations                    ... NOT USED
Finite Nucleus Model                        ... NOT USED
CABS basis                                  ... NOT available
Auxiliary Coulomb fitting basis             ... AVAILABLE
   # of basis functions in Aux-J            ...   1098
   # of shells in Aux-J                     ...    362
   Maximum angular momentum in Aux-J        ...      4
Auxiliary J/K fitting basis                 ... NOT available
Auxiliary Correlation fitting basis         ... NOT available
Auxiliary 'external' fitting basis          ... NOT available

Checking pre-screening integrals            ... done (  0.0 sec) Dimension = 161
   => SHARK Basis and OBASIS are compatible. Storing Pre-screening
Shell pair information
Shell pair cut-off parameter TPreSel        ...   2.5e-12
Total number of shell pairs                 ...     13041
Shell pairs after pre-screening             ...     10239
Total number of primitive shell pairs       ...     48197
Primitive shell pairs kept                  ...     24432
          la=0 lb=0:   3141 shell pairs
          la=1 lb=0:   3815 shell pairs
          la=1 lb=1:   1191 shell pairs
          la=2 lb=0:   1218 shell pairs
          la=2 lb=1:    756 shell pairs
          la=2 lb=2:    118 shell pairs

Checking whether 4 symmetric matrices of dimension 345 fit in memory
:Max Core in MB      =   4096.00
 MB in use           =     16.18
 MB left             =   4079.82
 MB needed           =      1.82
 Data fit in memory  = YES
Calculating RI/J V-Matrix + Cholesky decomp.... done (  0.1 sec)
Calculating Nuclear repulsion               ... done (  0.0 sec) ENN=   1393.842336547333 Eh

Diagonalization of the overlap matrix:
Smallest eigenvalue                        ... 2.961e-04
Time for diagonalization                   ...    0.016 sec
Threshold for overlap eigenvalues          ... 1.000e-07
Number of eigenvalues below threshold      ... 0
Time for construction of square roots      ...    0.004 sec
Total time needed                          ...    0.020 sec

-------------------
DFT GRID GENERATION
-------------------

General Integration Accuracy     IntAcc      ... 4.959
Radial Grid Type                 RadialGrid  ... OptM3 with GC (2021)
Angular Grid (max. ang.)         AngularGrid ... 6 (Lebedev-590)
Angular grid pruning method      GridPruning ... 4 (adaptive)
Weight generation scheme         WeightScheme... mBecke (2022)
Basis function cutoff            BFCut       ... 1.0000e-11
Integration weight cutoff        WCut        ... 1.0000e-14
Partially contracted basis set               ... off
Rotationally invariant grid construction     ... off
Angular grids for H and He will be reduced by one unit

Total number of grid points                  ...   400329
Total number of batches                      ...     6269
Average number of points per batch           ...       63
Average number of grid points per atom       ...    11774
Grids setup in   4.2 sec
Initializing property integral containers    ... done (  0.0 sec)

SHARK setup successfully completed in   4.4 seconds

Maximum memory used throughout the entire STARTUP-calculation: 137.0 MB
-------------------------------------------------------------------------------
                                 ORCA GUESS
                   Start orbitals & Density for SCF / CASSCF
-------------------------------------------------------------------------------

------------
SCF SETTINGS
------------
Hamiltonian:
 Density Functional     Method          .... DFT(GTOs)
 Exchange Functional    Exchange        .... B88
   X-Alpha parameter    XAlpha          ....  0.666667
   Becke's b parameter  XBeta           ....  0.004200
 Correlation Functional Correlation     .... P86
 LDA part of GGA corr.  LDAOpt          .... PW91-LDA
 Gradients option       PostSCFGGA      .... off
   NL short-range parameter             ....  4.400000
 RI-approximation to the Coulomb term is turned on
   Number of AuxJ basis functions       .... 1098


General Settings:
 Integral files         IntName         .... TPhP_def2svp
 Hartree-Fock type      HFTyp           .... RHF
 Total Charge           Charge          ....    0
 Multiplicity           Mult            ....    1
 Number of Electrons    NEL             ....  138
 Basis Dimension        Dim             ....  345
 Nuclear Repulsion      ENuc            ....   1393.8423365473 Eh

Convergence Acceleration:
 AO-DIIS                CNVDIIS         .... on
   Start iteration      DIISMaxIt       ....    12
   Startup error        DIISStart       ....  0.200000
   # of expansion vecs  DIISMaxEq       ....     5
   Bias factor          DIISBfac        ....   1.050
   Max. coefficient     DIISMaxC        ....  10.000
 MO-DIIS                CNVKDIIS        .... off
 Trust-Rad. Augm. Hess. CNVTRAH         .... auto
   Auto Start mean grad. ratio tolernc. ....  1.125000
   Auto Start start iteration           ....    50
   Auto Start num. interpolation iter.  ....    10
   Max. Number of Micro iterations      ....    24
   Max. Number of Macro iterations      .... Maxiter - #DIIS iter
   Number of Davidson start vectors     ....     2
   Converg. threshold    (grad. norm)   ....   1.000e-05
   Grad. Scal. Fac. for Micro threshold ....   0.100
   Minimum threshold for Micro iter.    ....   1.000e-02
   NR start threshold (gradient norm)   ....   1.000e-04
   Initial trust radius                 ....   0.400
   Minimum AH scaling param. (alpha)    ....   1.000
   Maximum AH scaling param. (alpha)    .... 1000.000
   Quad. conv. algorithm                .... NR
   White noise on init. David. guess    .... on
   Maximum white noise                  ....   0.010
   Pseudo random numbers                .... off
   Inactive MOs                         .... canonical
   Orbital update algorithm             .... Taylor
   Preconditioner                       .... Diag
   Full preconditioner red. dimension   ....   250
 SOSCF                 CNVSOSCF           .... on
   Start iteration     SOSCFMaxIt         ....   150
   Startup grad/error  SOSCFStart         ....  0.003300
   Hessian update      SOSCFHessUp        .... L-BFGS
   Autom. constraints  SOSCFAutoConstrain .... off
 Level Shifting         CNVShift        .... on
   Level shift para.    LevelShift      ....    0.2500
   Turn off err/grad.   ShiftErr        ....    0.0010
 Zerner damping         CNVZerner       .... off
 Static damping         CNVDamp         .... on
   Fraction old density DampFac         ....    0.7000
   Max. Damping (<1)    DampMax         ....    0.9800
   Min. Damping (>=0)   DampMin         ....    0.0000
   Turn off err/grad.   DampErr         ....    0.1000

SCF Procedure:
 Maximum # iterations   MaxIter         ....   125
 SCF integral mode      SCFMode         .... Direct
   Integral package                     .... SHARK and LIBINT hybrid scheme
 Reset frequency        DirectResetFreq ....    20
 Integral Threshold     Thresh          ....  2.500e-11 Eh
 Primitive CutOff       TCut            ....  2.500e-12 Eh

Convergence Tolerance:
 Convergence Check Mode ConvCheckMode   .... Total+1el-Energy
 Convergence forced     ConvForced      .... 0
 Energy Change          TolE            ....  1.000e-08 Eh
 1-El. energy change                    ....  1.000e-05 Eh
 Orbital Gradient       TolG            ....  1.000e-05
 Orbital Rotation angle TolX            ....  1.000e-05
 DIIS Error             TolErr          ....  5.000e-07

------------------------------
INITIAL GUESS: MODEL POTENTIAL
------------------------------
Loading Hartree-Fock densities                     ... done
Calculating cut-offs                               ... done
Initializing the effective Hamiltonian             ... done
Setting up the integral package (SHARK)            ... done
Starting the Coulomb interaction                   ... done (   0.4 sec)
Making the grid                                    ... done (   0.3 sec)
Mapping shells                                     ... done
Starting the XC term evaluation                    ... done (   0.3 sec)
  promolecular density results
     # of electrons  =    137.997555276
     EX              =   -119.500260297
     EC              =     -5.083279047
     EX+EC           =   -124.583539344
Transforming the Hamiltonian                       ... done (   0.0 sec)
Diagonalizing the Hamiltonian                      ... done (   0.0 sec)
Back transforming the eigenvectors                 ... done (   0.0 sec)
Now organizing SCF variables                       ... done
                      ------------------
                      INITIAL GUESS DONE (   1.0 sec)
                      ------------------
             **** ENERGY FILE WAS UPDATED (TPhP_def2svp.en.tmp) ****
Finished Guess after   1.1 sec
Maximum memory used throughout the entire GUESS-calculation: 26.5 MB

-------------------------------------------------------------------------------------------
                                      ORCA LEAN-SCF
                              memory conserving SCF solver
-------------------------------------------------------------------------------------------

----------------------------------------D-I-I-S--------------------------------------------
Iteration    Energy (Eh)           Delta-E    RMSDP     MaxDP     DIISErr   Damp  Time(sec)
-------------------------------------------------------------------------------------------
               ***  Starting incremental Fock matrix formation  ***
    1    -1035.4317649685081051     0.00e+00  2.00e-03  4.70e-02  1.07e-01  0.700   3.6
    2    -1035.5749220599946057    -1.43e-01  1.41e-03  3.78e-02  4.93e-02  0.700   3.1
                               ***Turning on AO-DIIS***
    3    -1035.6281041582064972    -5.32e-02  6.14e-04  3.16e-02  1.76e-02  0.700   3.3
    4    -1035.6592270716882922    -3.11e-02  1.14e-03  6.51e-02  8.85e-03  0.000   3.1
    5    -1035.7282338131321922    -6.90e-02  2.23e-04  1.45e-02  4.31e-03  0.000   3.9
                              *** Initializing SOSCF ***
---------------------------------------S-O-S-C-F--------------------------------------
Iteration    Energy (Eh)           Delta-E    RMSDP     MaxDP     MaxGrad    Time(sec)
--------------------------------------------------------------------------------------
    6    -1035.7287676902119529    -5.34e-04  7.76e-05  3.87e-03  8.41e-04     3.6
               *** Restarting incremental Fock matrix formation ***
    7    -1035.7287965632394844    -2.89e-05  5.32e-05  2.31e-03  1.69e-04     4.6
    8    -1035.7287953916679726     1.17e-06  2.22e-05  4.79e-04  2.81e-04     3.5
    9    -1035.7287989871160789    -3.60e-06  2.56e-05  1.73e-03  1.13e-04     3.3
   10    -1035.7287988791422322     1.08e-07  1.13e-05  6.91e-04  1.04e-04     3.4
   11    -1035.7287999449281415    -1.07e-06  1.04e-05  6.68e-04  6.18e-05     3.3
   12    -1035.7287996474337888     2.97e-07  5.97e-06  3.80e-04  8.25e-05     3.2
   13    -1035.7288001036440619    -4.56e-07  3.34e-06  1.94e-04  1.29e-05     3.1
   14    -1035.7288000620319508     4.16e-08  2.04e-06  1.33e-04  2.24e-05     2.9
   15    -1035.7288001325637197    -7.05e-08  5.20e-07  1.93e-05  1.76e-06     3.2
                  *** Gradient check signals convergence ***

               *****************************************************
               *                     SUCCESS                       *
               *           SCF CONVERGED AFTER  15 CYCLES          *
               *****************************************************

             **** ENERGY FILE WAS UPDATED (TPhP_def2svp.en.tmp) ****

----------------
TOTAL SCF ENERGY
----------------

Total Energy       :      -1035.72880011063125 Eh          -28183.61348 eV

Components:
Nuclear Repulsion  :       1393.84233654733316 Eh           37928.37822 eV
Electronic Energy  :      -2429.57113665796442 Eh          -66111.99170 eV
One Electron Energy:      -4178.52047774135735 Eh         -113703.32276 eV
Two Electron Energy:       1748.94934108339294 Eh           47591.33107 eV

Virial components:
Potential Energy   :      -2061.55204892511301 Eh          -56097.68320 eV
Kinetic Energy     :       1025.82324881448199 Eh           27914.06972 eV
Virial Ratio       :          2.00965619692047

DFT components:
N(Alpha)           :       69.000002591384 electrons
N(Beta)            :       69.000002591384 electrons
N(Total)           :      138.000005182769 electrons
E(X)               :     -121.117627668483 Eh       
E(C)               :       -5.093295596532 Eh       
E(XC)              :     -126.210923265015 Eh       

---------------
SCF CONVERGENCE
---------------

  Last Energy change         ...    7.0532e-08  Tolerance :   1.0000e-08
  Last MAX-Density change    ...    1.9283e-05  Tolerance :   1.0000e-07
  Last RMS-Density change    ...    5.1968e-07  Tolerance :   5.0000e-09
  Last DIIS Error            ...    8.4053e-04  Tolerance :   5.0000e-07
  Last Orbital Gradient      ...    1.7572e-06  Tolerance :   1.0000e-05
  Last Orbital Rotation      ...    1.2559e-05  Tolerance :   1.0000e-05


----------------
ORBITAL ENERGIES
----------------

  NO   OCC          E(Eh)            E(eV) 
   0   2.0000     -76.347203     -2077.5130 
   1   2.0000      -9.927671      -270.1457 
   2   2.0000      -9.927649      -270.1451 
   3   2.0000      -9.927572      -270.1430 
   4   2.0000      -9.924488      -270.0590 
   5   2.0000      -9.924438      -270.0577 
   6   2.0000      -9.924387      -270.0563 
   7   2.0000      -9.923868      -270.0422 
   8   2.0000      -9.923771      -270.0395 
   9   2.0000      -9.923729      -270.0384 
  10   2.0000      -9.923464      -270.0312 
  11   2.0000      -9.923405      -270.0296 
  12   2.0000      -9.923366      -270.0285 
  13   2.0000      -9.923241      -270.0251 
  14   2.0000      -9.923160      -270.0229 
  15   2.0000      -9.923137      -270.0223 
  16   2.0000      -9.922985      -270.0182 
  17   2.0000      -9.922901      -270.0159 
  18   2.0000      -9.922877      -270.0152 
  19   2.0000      -6.315181      -171.8448 
  20   2.0000      -4.536635      -123.4481 
  21   2.0000      -4.536631      -123.4480 
  22   2.0000      -4.533035      -123.3501 
  23   2.0000      -0.777163       -21.1477 
  24   2.0000      -0.769874       -20.9493 
  25   2.0000      -0.769811       -20.9476 
  26   2.0000      -0.695488       -18.9252 
  27   2.0000      -0.671201       -18.2643 
  28   2.0000      -0.671176       -18.2636 
  29   2.0000      -0.669933       -18.2298 
  30   2.0000      -0.665869       -18.1192 
  31   2.0000      -0.665850       -18.1187 
  32   2.0000      -0.584640       -15.9089 
  33   2.0000      -0.543945       -14.8015 
  34   2.0000      -0.543896       -14.8002 
  35   2.0000      -0.542226       -14.7547 
  36   2.0000      -0.532956       -14.5025 
  37   2.0000      -0.532945       -14.5022 
  38   2.0000      -0.500897       -13.6301 
  39   2.0000      -0.464970       -12.6525 
  40   2.0000      -0.464927       -12.6513 
  41   2.0000      -0.442486       -12.0407 
  42   2.0000      -0.408574       -11.1179 
  43   2.0000      -0.408539       -11.1169 
  44   2.0000      -0.407093       -11.0776 
  45   2.0000      -0.399579       -10.8731 
  46   2.0000      -0.399562       -10.8726 
  47   2.0000      -0.392819       -10.6892 
  48   2.0000      -0.376306       -10.2398 
  49   2.0000      -0.375682       -10.2228 
  50   2.0000      -0.375640       -10.2217 
  51   2.0000      -0.364742        -9.9251 
  52   2.0000      -0.364658        -9.9229 
  53   2.0000      -0.334385        -9.0991 
  54   2.0000      -0.331580        -9.0228 
  55   2.0000      -0.331487        -9.0202 
  56   2.0000      -0.324469        -8.8293 
  57   2.0000      -0.305704        -8.3186 
  58   2.0000      -0.305662        -8.3175 
  59   2.0000      -0.304984        -8.2990 
  60   2.0000      -0.287850        -7.8328 
  61   2.0000      -0.287809        -7.8317 
  62   2.0000      -0.249522        -6.7898 
  63   2.0000      -0.237564        -6.4644 
  64   2.0000      -0.237433        -6.4609 
  65   2.0000      -0.237063        -6.4508 
  66   2.0000      -0.230901        -6.2831 
  67   2.0000      -0.230880        -6.2826 
  68   2.0000      -0.193044        -5.2530 
  69   0.0000      -0.059730        -1.6253 
  70   0.0000      -0.059597        -1.6217 
  71   0.0000      -0.054814        -1.4916 
  72   0.0000      -0.043231        -1.1764 
  73   0.0000      -0.041107        -1.1186 
  74   0.0000      -0.041001        -1.1157 
  75   0.0000       0.025580         0.6961 
  76   0.0000       0.025806         0.7022 
  77   0.0000       0.041438         1.1276 
  78   0.0000       0.056381         1.5342 
  79   0.0000       0.056439         1.5358 
*Only the first 10 virtual orbitals were printed.

                    ********************************
                    * MULLIKEN POPULATION ANALYSIS *
                    ********************************

-----------------------
MULLIKEN ATOMIC CHARGES
-----------------------
   0 P :    0.304103
   1 C :   -0.157980
   2 C :    0.001951
   3 C :    0.013850
   4 C :    0.003037
   5 H :    0.016041
   6 C :   -0.001585
   7 H :    0.005575
   8 C :    0.002086
   9 H :    0.003862
  10 H :    0.006054
  11 H :    0.005688
  12 C :   -0.158439
  13 C :    0.013906
  14 C :    0.002588
  15 C :   -0.001534
  16 H :    0.005607
  17 C :    0.003057
  18 H :    0.015835
  19 C :    0.002134
  20 H :    0.006114
  21 H :    0.003939
  22 H :    0.005777
  23 C :   -0.158147
  24 C :    0.002191
  25 C :    0.013519
  26 C :    0.003114
  27 H :    0.015823
  28 C :   -0.001557
  29 H :    0.005631
  30 C :    0.002101
  31 H :    0.003871
  32 H :    0.006073
  33 H :    0.005715
Sum of atomic charges:   -0.0000000

--------------------------------
MULLIKEN REDUCED ORBITAL CHARGES
--------------------------------
  0 P s       :     5.686546  s :     5.686546
      pz      :     2.770971  p :     8.846631
      px      :     3.304001
      py      :     2.771659
      dz2     :     0.032984  d :     0.162721
      dxz     :     0.036624
      dyz     :     0.038509
      dx2y2   :     0.023160
      dxy     :     0.031444

  1 C s       :     3.098002  s :     3.098002
      pz      :     1.013163  p :     3.026161
      px      :     0.992524
      py      :     1.020475
      dz2     :     0.006009  d :     0.033816
      dxz     :     0.006910
      dyz     :     0.006463
      dx2y2   :     0.007649
      dxy     :     0.006784

  2 C s       :     3.235491  s :     3.235491
      pz      :     0.897775  p :     2.730929
      px      :     0.942729
      py      :     0.890425
      dz2     :     0.006791  d :     0.031629
      dxz     :     0.006798
      dyz     :     0.006509
      dx2y2   :     0.005861
      dxy     :     0.005671

  3 C s       :     3.216123  s :     3.216123
      pz      :     0.910826  p :     2.738373
      px      :     0.889462
      py      :     0.938086
      dz2     :     0.006980  d :     0.031654
      dxz     :     0.005923
      dyz     :     0.007253
      dx2y2   :     0.005275
      dxy     :     0.006224

  4 C s       :     3.177559  s :     3.177559
      pz      :     0.954393  p :     2.787661
      px      :     0.898524
      py      :     0.934745
      dz2     :     0.006920  d :     0.031742
      dxz     :     0.005843
      dyz     :     0.007363
      dx2y2   :     0.005373
      dxy     :     0.006243

  5 H s       :     0.961355  s :     0.961355
      pz      :     0.006217  p :     0.022604
      px      :     0.005120
      py      :     0.011268

  6 C s       :     3.177324  s :     3.177324
      pz      :     0.947311  p :     2.792547
      px      :     0.954802
      py      :     0.890434
      dz2     :     0.006636  d :     0.031714
      dxz     :     0.006786
      dyz     :     0.006529
      dx2y2   :     0.006028
      dxy     :     0.005735

  7 H s       :     0.972604  s :     0.972604
      pz      :     0.005459  p :     0.021820
      px      :     0.010327
      py      :     0.006035

  8 C s       :     3.176754  s :     3.176754
      pz      :     0.888987  p :     2.789495
      px      :     0.943808
      py      :     0.956700
      dz2     :     0.005594  d :     0.031665
      dxz     :     0.005877
      dyz     :     0.006297
      dx2y2   :     0.007043
      dxy     :     0.006854

  9 H s       :     0.974501  s :     0.974501
      pz      :     0.005396  p :     0.021636
      px      :     0.009995
      py      :     0.006245

 10 H s       :     0.972267  s :     0.972267
      pz      :     0.005822  p :     0.021679
      px      :     0.005194
      py      :     0.010663

 11 H s       :     0.972683  s :     0.972683
      pz      :     0.010685  p :     0.021628
      px      :     0.005902
      py      :     0.005042

 12 C s       :     3.098277  s :     3.098277
      pz      :     1.014121  p :     3.026342
      px      :     0.994736
      py      :     1.017485
      dz2     :     0.007376  d :     0.033820
      dxz     :     0.009324
      dyz     :     0.006248
      dx2y2   :     0.005553
      dxy     :     0.005318

 13 C s       :     3.216390  s :     3.216390
      pz      :     0.930519  p :     2.738048
      px      :     0.881580
      py      :     0.925950
      dz2     :     0.009497  d :     0.031656
      dxz     :     0.007849
      dyz     :     0.006816
      dx2y2   :     0.003134
      dxy     :     0.004360

 14 C s       :     3.235360  s :     3.235360
      pz      :     0.832598  p :     2.730417
      px      :     0.939051
      py      :     0.958768
      dz2     :     0.007427  d :     0.031634
      dxz     :     0.008387
      dyz     :     0.004920
      dx2y2   :     0.005762
      dxy     :     0.005138

 15 C s       :     3.177372  s :     3.177372
      pz      :     0.874020  p :     2.792455
      px      :     0.941420
      py      :     0.977015
      dz2     :     0.007452  d :     0.031707
      dxz     :     0.008528
      dyz     :     0.004872
      dx2y2   :     0.005749
      dxy     :     0.005106

 16 H s       :     0.972571  s :     0.972571
      pz      :     0.003690  p :     0.021822
      px      :     0.011121
      py      :     0.007011

 17 C s       :     3.177591  s :     3.177591
      pz      :     0.954901  p :     2.787612
      px      :     0.883901
      py      :     0.948810
      dz2     :     0.009646  d :     0.031739
      dxz     :     0.007733
      dyz     :     0.006843
      dx2y2   :     0.003119
      dxy     :     0.004397

 18 H s       :     0.961566  s :     0.961566
      pz      :     0.012305  p :     0.022600
      px      :     0.005967
      py      :     0.004327

 19 C s       :     3.176779  s :     3.176779
      pz      :     0.900230  p :     2.789420
      px      :     0.947462
      py      :     0.941728
      dz2     :     0.007083  d :     0.031667
      dxz     :     0.008485
      dyz     :     0.006416
      dx2y2   :     0.004868
      dxy     :     0.004815

 20 H s       :     0.972207  s :     0.972207
      pz      :     0.011268  p :     0.021679
      px      :     0.006058
      py      :     0.004353

 21 H s       :     0.974424  s :     0.974424
      pz      :     0.003745  p :     0.021637
      px      :     0.010797
      py      :     0.007094

 22 H s       :     0.972596  s :     0.972596
      pz      :     0.009299  p :     0.021627
      px      :     0.005246
      py      :     0.007082

 23 C s       :     3.098034  s :     3.098034
      pz      :     1.020924  p :     3.026296
      px      :     0.995294
      py      :     1.010078
      dz2     :     0.006146  d :     0.033818
      dxz     :     0.004909
      dyz     :     0.006047
      dx2y2   :     0.008000
      dxy     :     0.008715

 24 C s       :     3.235436  s :     3.235436
      pz      :     0.953647  p :     2.730744
      px      :     0.943063
      py      :     0.834034
      dz2     :     0.004315  d :     0.031629
      dxz     :     0.004208
      dyz     :     0.007561
      dx2y2   :     0.007388
      dxy     :     0.008157

 25 C s       :     3.216358  s :     3.216358
      pz      :     0.930271  p :     2.738468
      px      :     0.900254
      py      :     0.907943
      dz2     :     0.003740  d :     0.031654
      dxz     :     0.004145
      dyz     :     0.007460
      dx2y2   :     0.008326
      dxy     :     0.007983

 26 C s       :     3.177511  s :     3.177511
      pz      :     0.928855  p :     2.787633
      px      :     0.903626
      py      :     0.955153
      dz2     :     0.003870  d :     0.031742
      dxz     :     0.004193
      dyz     :     0.007682
      dx2y2   :     0.008208
      dxy     :     0.007789

 27 H s       :     0.961572  s :     0.961572
      pz      :     0.006853  p :     0.022606
      px      :     0.005909
      py      :     0.009844

 28 C s       :     3.177338  s :     3.177338
      pz      :     0.945589  p :     2.792507
      px      :     0.948277
      py      :     0.898641
      dz2     :     0.004413  d :     0.031712
      dxz     :     0.004204
      dyz     :     0.007453
      dx2y2   :     0.007388
      dxy     :     0.008253

 29 H s       :     0.972549  s :     0.972549
      pz      :     0.007937  p :     0.021820
      px      :     0.009901
      py      :     0.003982

 30 C s       :     3.176756  s :     3.176756
      pz      :     0.971435  p :     2.789477
      px      :     0.955718
      py      :     0.862324
      dz2     :     0.006193  d :     0.031666
      dxz     :     0.004904
      dyz     :     0.005710
      dx2y2   :     0.007769
      dxy     :     0.007090

 31 H s       :     0.974492  s :     0.974492
      pz      :     0.008154  p :     0.021637
      px      :     0.009592
      py      :     0.003891

 32 H s       :     0.972249  s :     0.972249
      pz      :     0.006771  p :     0.021679
      px      :     0.005996
      py      :     0.008912

 33 H s       :     0.972657  s :     0.972657
      pz      :     0.004373  p :     0.021628
      px      :     0.005029
      py      :     0.012227



                     *******************************
                     * LOEWDIN POPULATION ANALYSIS *
                     *******************************

----------------------
LOEWDIN ATOMIC CHARGES
----------------------
   0 P :    0.501742
   1 C :   -0.173118
   2 C :   -0.035834
   3 C :   -0.033493
   4 C :   -0.031095
   5 H :    0.035121
   6 C :   -0.031423
   7 H :    0.031415
   8 C :   -0.029742
   9 H :    0.033554
  10 H :    0.034001
  11 H :    0.033170
  12 C :   -0.173213
  13 C :   -0.033467
  14 C :   -0.035508
  15 C :   -0.031446
  16 H :    0.031416
  17 C :   -0.031109
  18 H :    0.035139
  19 C :   -0.029568
  20 H :    0.034019
  21 H :    0.033580
  22 H :    0.033202
  23 C :   -0.173171
  24 C :   -0.035651
  25 C :   -0.033569
  26 C :   -0.031071
  27 H :    0.035110
  28 C :   -0.031464
  29 H :    0.031427
  30 C :   -0.029702
  31 H :    0.033562
  32 H :    0.034007
  33 H :    0.033180

-------------------------------
LOEWDIN REDUCED ORBITAL CHARGES
-------------------------------
  0 P s       :     5.289914  s :     5.289914
      pz      :     2.801607  p :     8.984437
      px      :     3.380451
      py      :     2.802379
      dz2     :     0.046132  d :     0.223907
      dxz     :     0.049804
      dyz     :     0.053628
      dx2y2   :     0.032544
      dxy     :     0.041799

  1 C s       :     2.926741  s :     2.926741
      pz      :     1.054514  p :     3.159278
      px      :     1.052372
      py      :     1.052392
      dz2     :     0.013780  d :     0.087098
      dxz     :     0.018181
      dyz     :     0.017065
      dx2y2   :     0.019027
      dxy     :     0.019044

  2 C s       :     2.877652  s :     2.877652
      pz      :     1.029423  p :     3.071766
      px      :     1.017803
      py      :     1.024540
      dz2     :     0.017671  d :     0.086416
      dxz     :     0.020329
      dyz     :     0.017647
      dx2y2   :     0.015093
      dxy     :     0.015676

  3 C s       :     2.877679  s :     2.877679
      pz      :     1.027491  p :     3.069308
      px      :     1.014237
      py      :     1.027580
      dz2     :     0.018044  d :     0.086506
      dxz     :     0.016251
      dyz     :     0.021593
      dx2y2   :     0.014017
      dxy     :     0.016601

  4 C s       :     2.874031  s :     2.874031
      pz      :     1.030300  p :     3.071222
      px      :     1.011131
      py      :     1.029790
      dz2     :     0.017954  d :     0.085842
      dxz     :     0.016014
      dyz     :     0.021262
      dx2y2   :     0.013951
      dxy     :     0.016661

  5 H s       :     0.896476  s :     0.896476
      pz      :     0.018672  p :     0.068404
      px      :     0.015427
      py      :     0.034305

  6 C s       :     2.873690  s :     2.873690
      pz      :     1.029359  p :     3.071983
      px      :     1.025589
      py      :     1.017035
      dz2     :     0.017169  d :     0.085750
      dxz     :     0.019759
      dyz     :     0.017762
      dx2y2   :     0.015146
      dxy     :     0.015914

  7 H s       :     0.902064  s :     0.902064
      pz      :     0.016407  p :     0.066521
      px      :     0.031473
      py      :     0.018640

  8 C s       :     2.874551  s :     2.874551
      pz      :     1.015428  p :     3.069779
      px      :     1.021508
      py      :     1.032844
      dz2     :     0.014391  d :     0.085412
      dxz     :     0.015792
      dyz     :     0.017501
      dx2y2   :     0.018011
      dxy     :     0.019716

  9 H s       :     0.900729  s :     0.900729
      pz      :     0.016281  p :     0.065717
      px      :     0.030447
      py      :     0.018989

 10 H s       :     0.900315  s :     0.900315
      pz      :     0.017552  p :     0.065684
      px      :     0.015572
      py      :     0.032560

 11 H s       :     0.901046  s :     0.901046
      pz      :     0.032622  p :     0.065784
      px      :     0.017830
      py      :     0.015332

 12 C s       :     2.926718  s :     2.926718
      pz      :     1.066938  p :     3.159384
      px      :     1.062606
      py      :     1.029841
      dz2     :     0.020358  d :     0.087111
      dxz     :     0.025506
      dyz     :     0.014355
      dx2y2   :     0.012319
      dxy     :     0.014574

 13 C s       :     2.877768  s :     2.877768
      pz      :     1.056852  p :     3.069187
      px      :     1.020715
      py      :     0.991620
      dz2     :     0.027705  d :     0.086512
      dxz     :     0.022509
      dyz     :     0.018342
      dx2y2   :     0.006976
      dxy     :     0.010980

 14 C s       :     2.877687  s :     2.877687
      pz      :     1.042672  p :     3.071389
      px      :     1.025640
      py      :     1.003077
      dz2     :     0.020856  d :     0.086433
      dxz     :     0.023253
      dyz     :     0.013649
      dx2y2   :     0.013459
      dxy     :     0.015215

 15 C s       :     2.873709  s :     2.873709
      pz      :     1.036323  p :     3.072002
      px      :     1.031712
      py      :     1.003967
      dz2     :     0.020855  d :     0.085734
      dxz     :     0.023438
      dyz     :     0.013379
      dx2y2   :     0.013344
      dxy     :     0.014718

 16 H s       :     0.902051  s :     0.902051
      pz      :     0.011193  p :     0.066532
      px      :     0.034144
      py      :     0.021196

 17 C s       :     2.874039  s :     2.874039
      pz      :     1.057577  p :     3.071234
      px      :     1.017560
      py      :     0.996097
      dz2     :     0.027434  d :     0.085836
      dxz     :     0.022346
      dyz     :     0.018355
      dx2y2   :     0.006748
      dxy     :     0.010953

 18 H s       :     0.896477  s :     0.896477
      pz      :     0.037328  p :     0.068384
      px      :     0.018298
      py      :     0.012758

 19 C s       :     2.874577  s :     2.874577
      pz      :     1.042224  p :     3.069579
      px      :     1.032469
      py      :     0.994886
      dz2     :     0.020593  d :     0.085412
      dxz     :     0.024188
      dyz     :     0.015938
      dx2y2   :     0.011442
      dxy     :     0.013251

 20 H s       :     0.900293  s :     0.900293
      pz      :     0.034638  p :     0.065688
      px      :     0.018365
      py      :     0.012685

 21 H s       :     0.900700  s :     0.900700
      pz      :     0.011511  p :     0.065720
      px      :     0.033045
      py      :     0.021164

 22 H s       :     0.901016  s :     0.901016
      pz      :     0.028663  p :     0.065782
      px      :     0.015937
      py      :     0.021181

 23 C s       :     2.926726  s :     2.926726
      pz      :     1.035753  p :     3.159346
      px      :     1.048689
      py      :     1.074905
      dz2     :     0.013754  d :     0.087098
      dxz     :     0.014465
      dyz     :     0.016072
      dx2y2   :     0.019809
      dxy     :     0.022998

 24 C s       :     2.877637  s :     2.877637
      pz      :     1.007911  p :     3.071596
      px      :     1.011721
      py      :     1.051964
      dz2     :     0.010454  d :     0.086419
      dxz     :     0.012147
      dyz     :     0.019802
      dx2y2   :     0.021072
      dxy     :     0.022944

 25 C s       :     2.877722  s :     2.877722
      pz      :     0.997110  p :     3.069341
      px      :     1.010035
      py      :     1.062197
      dz2     :     0.009374  d :     0.086506
      dxz     :     0.010491
      dyz     :     0.020019
      dx2y2   :     0.024518
      dxy     :     0.022105

 26 C s       :     2.874025  s :     2.874025
      pz      :     1.000540  p :     3.071204
      px      :     1.007953
      py      :     1.062711
      dz2     :     0.009487  d :     0.085842
      dxz     :     0.010564
      dyz     :     0.020674
      dx2y2   :     0.023567
      dxy     :     0.021550

 27 H s       :     0.896482  s :     0.896482
      pz      :     0.020645  p :     0.068408
      px      :     0.017965
      py      :     0.029799

 28 C s       :     2.873698  s :     2.873698
      pz      :     1.004254  p :     3.072019
      px      :     1.019055
      py      :     1.048710
      dz2     :     0.010628  d :     0.085747
      dxz     :     0.012048
      dyz     :     0.019180
      dx2y2   :     0.021083
      dxy     :     0.022807

 29 H s       :     0.902048  s :     0.902048
      pz      :     0.024404  p :     0.066525
      px      :     0.030137
      py      :     0.011984

 30 C s       :     2.874557  s :     2.874557
      pz      :     1.010106  p :     3.069732
      px      :     1.019689
      py      :     1.039937
      dz2     :     0.014329  d :     0.085413
      dxz     :     0.014492
      dyz     :     0.015866
      dx2y2   :     0.021207
      dxy     :     0.019519

 31 H s       :     0.900722  s :     0.900722
      pz      :     0.024555  p :     0.065717
      px      :     0.029170
      py      :     0.011992

 32 H s       :     0.900307  s :     0.900307
      pz      :     0.020267  p :     0.065686
      px      :     0.018003
      py      :     0.027415

 33 H s       :     0.901037  s :     0.901037
      pz      :     0.012973  p :     0.065784
      px      :     0.015084
      py      :     0.037726



                      *****************************
                      * MAYER POPULATION ANALYSIS *
                      *****************************

  NA   - Mulliken gross atomic population
  ZA   - Total nuclear charge
  QA   - Mulliken gross atomic charge
  VA   - Mayer's total valence
  BVA  - Mayer's bonded valence
  FA   - Mayer's free valence

  ATOM       NA         ZA         QA         VA         BVA        FA
  0 P     14.6959    15.0000     0.3041     2.9993     2.9993     0.0000
  1 C      6.1580     6.0000    -0.1580     3.8407     3.8407     0.0000
  2 C      5.9980     6.0000     0.0020     3.8830     3.8830    -0.0000
  3 C      5.9862     6.0000     0.0138     3.8671     3.8671     0.0000
  4 C      5.9970     6.0000     0.0030     3.8372     3.8372    -0.0000
  5 H      0.9840     1.0000     0.0160     0.9913     0.9913    -0.0000
  6 C      6.0016     6.0000    -0.0016     3.8596     3.8596    -0.0000
  7 H      0.9944     1.0000     0.0056     0.9905     0.9905     0.0000
  8 C      5.9979     6.0000     0.0021     3.8272     3.8272     0.0000
  9 H      0.9961     1.0000     0.0039     0.9788     0.9788    -0.0000
 10 H      0.9939     1.0000     0.0061     0.9790     0.9790    -0.0000
 11 H      0.9943     1.0000     0.0057     0.9788     0.9788    -0.0000
 12 C      6.1584     6.0000    -0.1584     3.8408     3.8408     0.0000
 13 C      5.9861     6.0000     0.0139     3.8668     3.8668    -0.0000
 14 C      5.9974     6.0000     0.0026     3.8823     3.8823     0.0000
 15 C      6.0015     6.0000    -0.0015     3.8592     3.8592    -0.0000
 16 H      0.9944     1.0000     0.0056     0.9906     0.9906    -0.0000
 17 C      5.9969     6.0000     0.0031     3.8372     3.8372    -0.0000
 18 H      0.9842     1.0000     0.0158     0.9914     0.9914    -0.0000
 19 C      5.9979     6.0000     0.0021     3.8272     3.8272     0.0000
 20 H      0.9939     1.0000     0.0061     0.9790     0.9790    -0.0000
 21 H      0.9961     1.0000     0.0039     0.9788     0.9788     0.0000
 22 H      0.9942     1.0000     0.0058     0.9788     0.9788     0.0000
 23 C      6.1581     6.0000    -0.1581     3.8403     3.8403    -0.0000
 24 C      5.9978     6.0000     0.0022     3.8830     3.8830     0.0000
 25 C      5.9865     6.0000     0.0135     3.8673     3.8673     0.0000
 26 C      5.9969     6.0000     0.0031     3.8372     3.8372     0.0000
 27 H      0.9842     1.0000     0.0158     0.9914     0.9914    -0.0000
 28 C      6.0016     6.0000    -0.0016     3.8595     3.8595    -0.0000
 29 H      0.9944     1.0000     0.0056     0.9905     0.9905     0.0000
 30 C      5.9979     6.0000     0.0021     3.8272     3.8272    -0.0000
 31 H      0.9961     1.0000     0.0039     0.9788     0.9788     0.0000
 32 H      0.9939     1.0000     0.0061     0.9790     0.9790     0.0000
 33 H      0.9943     1.0000     0.0057     0.9788     0.9788     0.0000

  Mayer bond orders larger than 0.100000
B(  0-P ,  1-C ) :   0.9357 B(  0-P , 12-C ) :   0.9362 B(  0-P , 23-C ) :   0.9356 
B(  1-C ,  2-C ) :   1.3832 B(  1-C ,  3-C ) :   1.3604 B(  2-C ,  4-C ) :   1.3831 
B(  2-C ,  5-H ) :   0.9674 B(  3-C ,  6-C ) :   1.4068 B(  3-C ,  7-H ) :   0.9706 
B(  4-C ,  8-C ) :   1.3807 B(  4-C ,  9-H ) :   0.9741 B(  6-C ,  8-C ) :   1.3743 
B(  6-C , 10-H ) :   0.9752 B(  8-C , 11-H ) :   0.9753 B( 12-C , 13-C ) :   1.3610 
B( 12-C , 14-C ) :   1.3823 B( 13-C , 15-C ) :   1.4060 B( 13-C , 16-H ) :   0.9707 
B( 14-C , 17-C ) :   1.3835 B( 14-C , 18-H ) :   0.9675 B( 15-C , 19-C ) :   1.3747 
B( 15-C , 20-H ) :   0.9753 B( 17-C , 19-C ) :   1.3803 B( 17-C , 21-H ) :   0.9742 
B( 19-C , 22-H ) :   0.9753 B( 23-C , 24-C ) :   1.3830 B( 23-C , 25-C ) :   1.3605 
B( 24-C , 26-C ) :   1.3833 B( 24-C , 27-H ) :   0.9674 B( 25-C , 28-C ) :   1.4066 
B( 25-C , 29-H ) :   0.9707 B( 26-C , 30-C ) :   1.3806 B( 26-C , 31-H ) :   0.9741 
B( 28-C , 30-C ) :   1.3744 B( 28-C , 32-H ) :   0.9752 B( 30-C , 33-H ) :   0.9753 


-------
TIMINGS
-------

Total SCF time: 0 days 0 hours 0 min 54 sec 

Total time                  ....      54.062 sec
Sum of individual times     ....      51.212 sec  ( 94.7%)

SCF preparation             ....       0.066 sec  (  0.1%)
Fock matrix formation       ....      50.669 sec  ( 93.7%)
  Startup                   ....       0.006 sec  (  0.0% of F)
  Split-RI-J                ....      14.220 sec  ( 28.1% of F)
  XC integration            ....      39.212 sec  ( 77.4% of F)
    XC Preparation          ....       0.000 sec  (  0.0% of XC)
    Basis function eval.    ....      16.039 sec  ( 40.9% of XC)
    Density eval.           ....      11.587 sec  ( 29.6% of XC)
    XC-Functional eval.     ....       1.913 sec  (  4.9% of XC)
    XC-Potential eval.      ....       8.690 sec  ( 22.2% of XC)
Diagonalization             ....       0.000 sec  (  0.0%)
Density matrix formation    ....       0.028 sec  (  0.1%)
Total Energy calculation    ....       0.007 sec  (  0.0%)
Population analysis         ....       0.014 sec  (  0.0%)
Orbital Transformation      ....       0.049 sec  (  0.1%)
Orbital Orthonormalization  ....       0.000 sec  (  0.0%)
DIIS solution               ....       0.187 sec  (  0.3%)
SOSCF solution              ....       0.191 sec  (  0.4%)
Finished LeanSCF after  54.1 sec

Maximum memory used throughout the entire LEANSCF-calculation: 65.4 MB

-------------------------   --------------------
FINAL SINGLE POINT ENERGY     -1035.728800110631
-------------------------   --------------------


------------------------------------------------------------------------------
                              ORCA PROPERTY CALCULATIONS
------------------------------------------------------------------------------

GBWName                                 ... TPhP_def2svp.gbw
Number of atoms                         ...     34
Number of basis functions               ...    345
Max core memory                         ...   4096 MB

Electric properties:
Dipole moment                           ... YES
Quadrupole moment                       ...  NO
Static polarizability (Dipole/Dipole)   ...  NO
Static polarizability (Dipole/Quad.)    ...  NO
Static polarizability (Quad./Quad.)     ...  NO
Static polarizability (Velocity)        ...  NO
Static hyperpolarizability              ...  NO

Atomic electric properties:
Dipole moment                           ...  NO
Quadrupole moment                       ...  NO
Static polarizability                   ...  NO

Choice of electric origin               ... Center of mass
Position of electric origin             ...    -6.606413     2.543509    -0.156330

General magnetic properties:
Magnetizability                         ...  NO

EPR properties:
g-Tensor (aka g-matrix)                 ...  NO
Zero-Field splitting spin-orbit         ...  NO
Zero-field splitting spin-spin          ...  NO
Hyperfine couplings                     ...  NO (   0 nuclei)
Quadrupole couplings                    ...  NO (   0 nuclei)
Contact density                         ...  NO (   0 nuclei)

NMR properties:
Chemical shifts                         ...  NO (   0 nuclei)
Spin-rotation constants                 ...  NO (   0 nuclei)
Spin-spin couplings                     ...  NO (   0 nuclei,    0 pairs)

Choice of magnetic origin               ... GIAO
Position of magnetic origin             ...     0.000000     0.000000     0.000000

Properties with geometric perturbations:
SCF Hessian                             ...  NO
IR spectrum                             ...  NO
VCD spectrum                            ...  NO
X-ray spectroscopy properties:
SCF XES/XAS/RIXS spectra                ...  NO

SCF SOC stabilization energy            ...  NO
Diagonal Born-Oppenheimer correction    ...  NO

-------------
DIPOLE MOMENT
-------------

Method             : SCF
Type of density    : Electron Density
Multiplicity       :   1
Irrep              :   0
Energy             : -1035.7288001106312549 Eh
Basis              : AO
                                X                 Y                 Z
Electronic contribution:      5.273325109      -0.328942589      -0.254024253
Nuclear contribution   :     -5.777322139       0.358900583       0.281653746
                        -----------------------------------------
Total Dipole Moment    :     -0.503997030       0.029957994       0.027629493
                        -----------------------------------------
Magnitude (a.u.)       :      0.505642044
Magnitude (Debye)      :      1.285239935



--------------------
Rotational spectrum 
--------------------
 
Rotational constants in cm-1:             0.011624             0.011615             0.006845 
Rotational constants in MHz :           348.479865           348.201264           205.208374 

Dipole components along the rotational axes: 
x,y,z [a.u.] :    -0.002700    -0.001663     0.505632 
x,y,z [Debye]:    -0.006862    -0.004227     1.285215 

 

Dipole moment calculation done in   0.0 sec 

Maximum memory used throughout the entire PROP-calculation: 26.3 MB

--------------------------------
SUGGESTED CITATIONS FOR THIS RUN
--------------------------------

Below you find a list of papers that are relevant to this ORCA run
We neither can nor want to force you to cite these papers, but we appreciate if you do
You receive ORCA, which is the product of decades of hard work by many enthusiastic individuals, for free
The only thing we kindly ask in return is that you cite our papers,
We deeply appreciate it, if you show your appreciation for ORCA by not just citing the generic ORCA reference.

Please note that relegating all ORCA citations to the supporting information does *not* help us.
SI sections are not indexed - citations you put there will not count into any citation statistics
But we need these citations in order to attract the funding resources that allow us to do what we are doing

Therefore, if you are a happy ORCA user, please consider citing a few of the papers listed below in the main body of your paper

In addition to the list printed below, the program has created the file TPhP_def2svp.bibtex that contains the list in bibtex format
You can import this file easily into all common literature databanks and citation aid programs

It goes without saying that in many instances, there are alternative algorithms to achieve similar
results as the ones you have gotten from ORCA. It is, of course, also the case that in some instances
ORCA just re-implements algorithms worked out by others. We are fully aware of that and we are also
fully appreciative of our colleagues work. Hence this citation list should not be read as indicating
that the listed papers, which are focused on our own work, are the only ones worth citing. It simply
meant to make it easier for users to cite ORCA specific papers. It is not a substitute for doing your
own literature research and citing the relevant literature in a scientifically appropriate manner.

List of essential papers. We consider these as the minimum necessary citations

  1. Neese, F.
     Software update: the ORCA program system, version 6.0
     WIRES Comput. Molec. Sci. 2025 15(1), e70019
     doi.org/10.1002/wcms.70019

List of papers to cite with high priority. The work reported in these papers was absolutely
necessary for this run to complete.
Our perspective: the developers of density functionals and basis sets usually get cited in chemistry papers
Good! But without the algorithms to do something with them, the functionals or basis sets would not do anything.
Hence, in our opinion, the algorithm design and method developments papers are equally worthy of getting cited

  1. Neese, F.
     An improvement of the resolution of the identity approximation for the formation of the Coulomb matrix
     J. Comp. Chem. 2003 24(14), 1740-1747
     doi.org/10.1002/jcc.10318
  2. Neese, F.
     The SHARK Integral Generation and Digestion System
     J. Comp. Chem. 2022 44(3), 381
     doi.org/10.1002/jcc.26942

List of suggested additional citations. These are papers that are important in the 'surrounding' of 
of this run, or papers that preceded the highly important papers. If you like your results we are grateful for a citation.

  1. Neese, F.
     The ORCA program system
     WIRES Comput. Molec. Sci. 2012 2(1), 73-78
     doi.org/10.1002/wcms.81
  2. Neese, F.
     Software update: the ORCA program system, version 4.0
     WIRES Comput. Molec. Sci. 2018 8(1), 1-6
     doi.org/10.1002/wcms.1327
  3. Neese, F.; Wennmohs, F.; Becker, U.; Riplinger, C.
     The ORCA quantum chemistry program package
     J. Chem. Phys. 2020 152(22), 224108
     doi.org/10.1063/5.0004608
  4. Neese, F.
     Software update: The ORCA program system—Version 5.0
     WIRES Comput. Molec. Sci. 2022 12(1), e1606
     doi.org/10.1002/wcms.1606

List of optional additional citations

  1. Neese, F.
     Approximate second-order SCF convergence for spin unrestricted wavefunctions
     Chem. Phys. Lett. 2000 325(1-3), 93-98
     doi.org/10.1016/s0009-2614(00)00662-x

Timings for individual modules:

Sum of individual times          ...       59.767 sec (=   0.996 min)
Startup calculation              ...        4.465 sec (=   0.074 min)   7.5 %
SCF iterations                   ...       55.228 sec (=   0.920 min)  92.4 %
Property calculations            ...        0.075 sec (=   0.001 min)   0.1 %
                             ****ORCA TERMINATED NORMALLY****
TOTAL RUN TIME: 0 days 0 hours 0 minutes 59 seconds 893 msec
