
                                 *****************
                                 * O   R   C   A *
                                 *****************

                                            #,                                       
                                            ###                                      
                                            ####                                     
                                            #####                                    
                                            ######                                   
                                           ########,                                 
                                     ,,################,,,,,                         
                               ,,#################################,,                 
                          ,,##########################################,,             
                       ,#########################################, ''#####,          
                    ,#############################################,,   '####,        
                  ,##################################################,,,,####,       
                ,###########''''           ''''###############################       
              ,#####''   ,,,,##########,,,,          '''####'''          '####       
            ,##' ,,,,###########################,,,                        '##       
           ' ,,###''''                  '''############,,,                           
         ,,##''                                '''############,,,,        ,,,,,,###''
      ,#''                                            '''#######################'''  
     '                                                          ''''####''''         
             ,#######,   #######,   ,#######,      ##                                
            ,#'     '#,  ##    ##  ,#'     '#,    #''#        ,####,    ,#,          
            ##       ##  ##   ,#'  ##            #'  '#       #'       ,# #          
            ##       ##  #######   ##           ,######,      #####,      #          
            '#,     ,#'  ##    ##  '#,     ,#' ,#      #,     #,   #      #          
             '#######'   ##     ##  '#######'  #'      '#     '####' #    #          



                #########################################################
                #                        -***-                          #
                #          Department of theory and spectroscopy        #
                #                                                       #
                #                      Frank Neese                      #
                #                                                       #
                #     Directorship, Architecture, Infrastructure        #
                #                    SHARK, DRIVERS                     #
                #        Core code/Algorithms in most modules           #
                #                                                       #
                #        Max Planck Institute fuer Kohlenforschung      #
                #                Kaiser Wilhelm Platz 1                 #
                #                 D-45470 Muelheim/Ruhr                 #
                #                      Germany                          #
                #                                                       #
                #                  All rights reserved                  #
                #                        -***-                          #
                #########################################################


                         Program Version 6.1.1  -  RELEASE   -
                                (GIT: $487d211c$)
                          ($2025-11-21 10:33:24 +0100$)


 With contributions from (in alphabetic order):
[Max-Planck-Institut fuer Kohlenforschung]                               
  Daniel Aravena         : Magnetic Suceptibility                        
  Michael Atanasov       : Ab Initio Ligand Field Theory (pilot matlab implementation)
  Alexander A. Auer      : GIAO ZORA, VPT2 properties, NMR spectrum      
  Ute Becker             : All parallelization in ORCA, NUMFREQ, NUMCALC 
  Giovanni Bistoni       : ED, misc. LED, open-shell LED, HFLD           
  Dmytro Bykov           : pre 5.0 version of the SCF Hessian            
  Marcos Casanova-Páez   : Triplet and SCS-CIS(D). UHF-(DLPNO)-IP/EA/STEOM-CCSD. UHF-CVS-IP/STEOM-CCSD   
  Vijay G. Chilkuri      : MRCI spin determinant printing, contributions to CSF-ICE 
  Pauline Colinet        : FMM embedding                                 
  Dipayan Datta          : RHF DLPNO-CCSD density                        
  Achintya Kumar Dutta   : EOM-CC, STEOM-CC                              
  Nicolas Foglia         : Exact transition moments, OPA infrastructure, MCD improvements    
  Dmitry Ganyushin       : Spin-Orbit,Spin-Spin,Magnetic field MRCI      
  Miquel Garcia-Rates    : C-PCM and meta-GGA Hessian, CCSD/C-PCM, Gaussian charge scheme 
  Tiago L. C. Gouveia    : GS-ROHF, GS-ROCIS                             
  Yang Guo               : DLPNO-NEVPT2, F12-NEVPT2, CIM, IAO-localization        
  Andreas Hansen         : Spin unrestricted coupled pair/coupled cluster methods 
  Ingolf Harden          : AUTO-CI MPn and infrastructure                
  Benjamin Helmich-Paris : MC-RPA, TRAH-(SCF,CASSCF), AVAS, COSX integrals, SCF dyn. polar., MC-PDFT, srDFT 
  Lee Huntington         : MR-EOM, pCC                                   
  Robert Izsak           : Overlap fitted RIJCOSX, COSX-SCS-MP3, EOM     
  Riya Kayal             : Wick's Theorem for AUTO-CI, AUTO-CI UHF-CCSDT 
  Emily Kempfer          : AUTO-CI RHF CISDT and CCSDT, approximate NEVPT4
  Christian Kollmar      : KDIIS, OOCD, Brueckner-CCSD(T), CCSD density, CASPT2, CASPT2-K, improved NEVPT2 
  Axel Koslowski         : Symmetry handling                             
  Simone Kossmann        : meta-GGA functionals, TD-DFT gradient, OOMP2, (MP2 Hessian; deprecated post 5.0) 
  Lucas Lang             : DCDCAS, Hyperfine gauge corrections, ICE-SOC+SSC
  Marvin Lechner         : AUTO-CI (C++ implementation), FIC-MRCC        
  Spencer Leger          : CASSCF response                               
  Dagmar Lenk            : GEPOL surface, SMD, ORCA-2-JSON               
  Dimitrios Liakos       : Extrapolation schemes; Compound Job, Property file
  Dimitrios Manganas     : Further ROCIS development; embedding schemes. LFT, Crystal Embedding 
  Dimitrios Pantazis     : SARC Basis sets                               
  Anastasios Papadopoulos: AUTO-CI, single reference methods and gradients 
  Taras Petrenko         : pre 6.0 DFT Hessian and TD-DFT gradient,  ECA, NRVS 
  Petra Pikulova         : Analytic Raman intensities                    
  Peter Pinski           : DLPNO-MP2, DLPNO-MP2 Gradient                 
  Shashank Vittal Rao    : ES-AILFT, MagRelax                            
  Christoph Reimann      : Effective Core Potentials                     
  Marius Retegan         : Local ZFS, SOC                                
  Christoph Riplinger    : Optimizer, TS searches, QM/MM, DLPNO-CCSD(T), (RO)-DLPNO pert. Triples 
  Michael Roemelt        : Original ROCIS implementation, recursive CI coupling coefficients
  Masaaki Saitow         : Open-shell DLPNO-CCSD energy and density      
  Barbara Sandhoefer     : DKH picture change effects                    
  Yorick L. A. Schmerwitz: GMF and freeze-and-release deltaSCF, NEB S-IDPP initial path                    
  Kantharuban Sivalingam : CASSCF convergence/infrastructure, NEVPT2, NEVPT3, NEVPT4(SD), FIC-MRCI and CEPA variants
  Bernardo de Souza      : ESD, SOC TD-DFT                               
  Georgi L. Stoychev     : AutoAux, RI-MP2 NMR, DLPNO-MP2 response, X2C  
  Van Anh Tran           : RI-MP2 g-tensors                              
  Willem Van den Heuvel  : Paramagnetic NMR                              
  Zikuan Wang            : NOTCH, Electric field optimization            
  Frank Wennmohs         : Technical directorship and infrastructure     
  Hang Xu                : AUTO-CI-Response properties                   
                                                                         
[FACCTs GmbH]                                                            
  Markus Bursch, Nicolas Foglia, Miquel Garcia-Rates, Ingolf Harden, Hagen Neugebauer, Anastasios Papadopoulos, 
  Christoph Riplinger, Bernardo de Souza, Georgi L. Stoychev                                                    
                                                                 
  APM, various basis sets, CI-OPT, improved COSX, DLPNO-Multilevel,           
  DOCKER, DRACO, updates on ESD, Fragmentator, GOAT, IRC, LR-CPCM, L-BFGS, MBIS, meta-GGA TD-DFT gradient, ML-optimized integration grids, 
  MM, NACMEs, nearIR, NEB, NEB-TS, NL-DFT gradient (VV10), 2- and 3-layer-ONIOM, interface openCOSMO-RS, QMMM,   
  Crystal-QMMM, RESP, rigid body optimization, SF, symmetry and pop. for TD-DFT, various functionals, SOLVATOR                                   
                                                                         
[Other institutions]                                                     
  V. Asgeirsson          : NEB                                           
  Christoph Bannwarth    : sTDA-DFT, sTD-DFT, PBEh-3c, B97-3c, D3        
  Giovanni Bistoni       : ETS/NOCV, ADLD/ADEX, COVALED                  
  Martin Brehm           : Molecular dynamics                            
  Ronald Cardenas        : ETS/NOCV                                      
  Martina Colucci        : COVALED                                       
  Sebastian Ehlert       : rSCAN, r2SCAN, r2SCAN-3c, D4, dhf basis sets  
  Marvin Friede          : D4 for Fr, Ra, Ac-Lr                          
  Lars Goerigk           : TD-DFT with DH, B97 family of functionals     
  Stefan Grimme          : VdW corrections, initial TS optimization, DFT functionals, gCP, sTDA/sTD-DF 
  Waldemar Hujo          : DFT-NL                                        
  H. Jonsson             : NEB                                           
  Holger Kruse           : gCP                                           
  Marcel Mueller         : wB97X-3c, vDZP basis set                      
  Hagen Neugebauer       : wr2SCAN, Native XTB                           
  Gianluca Regni         : ADLD/ADEX                                     
  Tobias Risthaus        : pre 6.0 range-separated hybrid DFT and stability analysis
  Lukas Wittmann         : regularized MP2, r2SCAN double-hybrids, wr2SCAN        
                                                                         
We gratefully acknowledge several colleagues who have allowed us to      
interface, adapt or use parts of their codes:                            
  Ed Valeev, F. Pavosevic, A. Kumar             : LibInt (2-el integral package), F12 methods 
  Garnet Chan, S. Sharma, J. Yang, R. Olivares  : DMRG                   
  Ulf Ekstrom                                   : XCFun DFT Library      
  Mihaly Kallay                                 : mrcc  (arbitrary order and MRCC methods)
  Frank Weinhold                                : gennbo (NPA and NBO analysis)           
  Simon Mueller                                 : openCOSMO-RS                            
  Christopher J. Cramer and Donald G. Truhlar   : smd solvation model                     
  S Lehtola, MJT Oliveira, MAL Marques          : LibXC Library                           
  Liviu Ungur et al                             : ANISO software                          


 Your calculation uses the libint2 library for the computation of 2-el integrals
 For citations please refer to: http://libint.valeyev.net

 Your ORCA version has been built with support for libXC version: 7.0.0
 For citations please refer to: https://libxc.gitlab.io

 This ORCA versions uses:
   CBLAS   interface :  Fast vector & matrix operations
   LAPACKE interface :  Fast linear algebra routines
   SCALAPACK package :  Parallel linear algebra routines
   Shared memory     :  Shared parallel matrices
   BLAS/LAPACK       :  OpenBLAS 0.3.29  USE64BITINT DYNAMIC_ARCH NO_AFFINITY Cooperlake SINGLE_THREADED
        Core in use  :  Cooperlake
   Copyright (c) 2011-2014, The OpenBLAS Project


  ***********************************
  * Starting time: Wed Jul 22 14:05:35 2026
  * Host name:     c1-33
  * Process ID:    2862980
  * Working dir.:  /cluster/projects/nn14654k/ylvaos/TPhP_bsse/orca/opt1_bp86_pet3
  ***********************************

================================================================================



################################################################################


                                COMPOUND JOB MainJOB 
Basename: 15h_pet3_Compound_0

################################################################################

================================================================================
                                       INPUT FILE
================================================================================
NAME = 15h_pet3_Compound_0.inp
|  1> #
|  2>  
|  3> #
|  4>  
|  5> 
|  6>                          ****END OF INPUT****
================================================================================
================================================================================



################################################################################


                                COMPOUND JOB  1 
Basename: 15h_pet3_Compound_1
NOTE: please remember that MaxCore and PAL settings will be ignored.

################################################################################

================================================================================
                                       INPUT FILE
================================================================================
NAME = 15h_pet3_Compound_1.inp
|  1>   ! BP86 def2-SVP VeryTightSCF defgrid3 NOAUTOSTART
|  2>   %loc
|  3>     LocMet NEWBOYS
|  4>     Occ true
|  5>   end
|  6>   %id "def2-svp"
|  7>   * xyzfile 0 1 opt1_pet3/15h_pet3_opt.xyz
|  8> 
|  9>                          ****END OF INPUT****
================================================================================


***************************************
The coordinates will be read from file: opt1_pet3/15h_pet3_opt.xyz
***************************************


Warning: RI is on but no J-basis has been assigned. Assigning Def2/J (nothing to worry about!)
================================================================================

cite the ECPs for Ru [Def2-ECP] as follows:
Ce-Yb(ecp-28): M. Dolg, H. Stoll, H.Preuss, J. Chem. Phys., 1989, 90, 1730-1734.
Y-Cd(ecp-28), Hf-Hg(ecp-46): D. Andrae,U. Haeussermann, M. Dolg, H. Stoll, H. Preuss, Theor. Chim. Acta, 1990, 77, 123-141.
In-Sb(ecp-28), Tl-Bi(ecp-46): B. Metz, H. Stoll, M. Dolg, J. Chem. Phys., 2000, 113, 2563-2569.
Te-Xe(ecp-28), Po-Rn(ecp-46): K. A. Peterson, D. Figgen, E. Goll, H. Stoll, M. Dolg, J. Chem. Phys., 2003, 119, 11113-11123.
Rb(ecp-28), Cs(ecp-46): T. Leininger, A. Nicklass, W. Kuechle, H. Stoll, M. Dolg, A. Bergner, Chem. Phys. Lett., 1996, 255, 274-280.
Sr(ecp-28), Ba(ecp-46): M. Kaupp, P. V. Schleyer, H. Stoll and H. Preuss, J. Chem. Phys., 1991, 94, 1360-1366.
La(ecp-46): M. Dolg, H. Stoll, A. Savin, H. Preuss, Theor. Chim. Acta, 1989, 75, 173-194.
Lu(ecp-28): X. Cao, M. Dolg, J. Chem. Phys., 2001, 115, 7348-7355.

ECP parameters for Ru [Def2-ECP] have been obtained from:
TURBOMOLE (7.0.2)

----- Orbital basis set information -----
Your calculation utilizes the basis: def2-SVP
   F. Weigend and R. Ahlrichs, Phys. Chem. Chem. Phys. 7, 3297 (2005).

----- AuxJ basis set information -----
Your calculation utilizes the auxiliary basis: def2/J
   H-Rn: F. Weigend, Phys. Chem. Chem. Phys. 8, 1057 (2006).
   Fr-Lr: K. Eichkorn, F. Weigend, O. Treutler, R. Ahlrichs; Theor. Chem. Acc. 97, 119 (1997).

================================================================================
                                        WARNINGS
                       Please study these warnings very carefully!
================================================================================

WARNING: Old DensityContainer found on disk!
         Will remove this file - 
         If you want to keep old densities, please start your calculation with a different basename. 



                       ****************************
                       * Single Point Calculation *
                       ****************************

---------------------------------
CARTESIAN COORDINATES (ANGSTROEM)
---------------------------------
  Ru     1.374864    2.171995    0.018687
  P     -0.248411    0.560373    0.163431
  P      2.349570    4.236102   -0.248723
  C      0.091284   -0.919972    1.222958
  H      2.903180    1.733102    0.940206
  H      2.360464    1.095130    1.127431
  H      0.726699    2.794003    1.293116
  H      0.223520    2.843277   -0.914000
  C     -1.868936    1.196387    0.788862
  C     -0.645535   -0.176172   -1.482726
  C      1.336468    5.648518    0.370483
  C      2.652147    4.660525   -2.025383
  C      3.984277    4.532038    0.585120
  C     -3.151458    0.536472    0.279600
  H     -3.266654    0.670417   -0.806918
  H     -4.032585    0.994094    0.758208
  H     -3.187038   -0.543001    0.485683
  H     -1.864945    2.266868    0.536035
  H     -1.804948    1.149559    1.889742
  C     -1.000614   -1.969687    1.420306
  H     -1.369080   -2.370520    0.462508
  H     -1.862623   -1.559321    1.968184
  H     -0.618481   -2.821769    2.005736
  H      0.405767   -0.501666    2.194251
  H      1.000525   -1.377368    0.796121
  C      0.636187   -0.567692   -2.219568
  H      0.419318   -0.958170   -3.226743
  H      1.200399   -1.343387   -1.676811
  H      1.297861    0.308389   -2.333951
  H     -1.172745    0.610657   -2.046118
  H     -1.334383   -1.031888   -1.394494
  C      3.286572    6.002517   -2.386415
  H      2.734560    6.850507   -1.950745
  H      3.293856    6.144668   -3.479396
  H      4.330457    6.066513   -2.043804
  H      1.664637    4.552458   -2.503301
  H      3.258408    3.828402   -2.423967
  C     -0.077352    5.705094   -0.202692
  H     -0.066561    5.820758   -1.298782
  H     -0.632025    6.560019    0.217056
  H     -0.621330    4.778193    0.025748
  H      1.871148    6.592672    0.178489
  H      1.296354    5.521141    1.465354
  C      4.420053    5.958420    0.927121
  H      4.451385    6.618330    0.048656
  H      3.742840    6.417887    1.663161
  H      5.428238    5.952786    1.372793
  H      4.734109    4.030092   -0.052014
  H      3.935887    3.934131    1.509564

----------------------------
CARTESIAN COORDINATES (A.U.)
----------------------------
  NO LB      ZA    FRAG     MASS         X           Y           Z
   0 Ru   16.0000*   0   101.070    2.598117    4.104477    0.035313
   1 P    15.0000    0    30.974   -0.469429    1.058952    0.308840
   2 P    15.0000    0    30.974    4.440045    8.005072   -0.470019
   3 C     6.0000    0    12.011    0.172501   -1.738495    2.311055
   4 H     1.0000    0     1.008    5.486214    3.275088    1.776731
   5 H     1.0000    0     1.008    4.460631    2.069496    2.130535
   6 H     1.0000    0     1.008    1.373263    5.279901    2.443636
   7 H     1.0000    0     1.008    0.422391    5.373016   -1.727209
   8 C     6.0000    0    12.011   -3.531778    2.260843    1.490733
   9 C     6.0000    0    12.011   -1.219884   -0.332918   -2.801947
  10 C     6.0000    0    12.011    2.525559   10.674153    0.700112
  11 C     6.0000    0    12.011    5.011831    8.807117   -3.827418
  12 C     6.0000    0    12.011    7.529192    8.564310    1.105716
  13 C     6.0000    0    12.011   -5.955393    1.013785    0.528367
  14 H     1.0000    0     1.008   -6.173082    1.266904   -1.524855
  15 H     1.0000    0     1.008   -7.620482    1.878565    1.432805
  16 H     1.0000    0     1.008   -6.022630   -1.026123    0.917807
  17 H     1.0000    0     1.008   -3.524236    4.283759    1.012959
  18 H     1.0000    0     1.008   -3.410856    2.172351    3.571094
  19 C     6.0000    0    12.011   -1.890886   -3.722169    2.683989
  20 H     1.0000    0     1.008   -2.587185   -4.479633    0.874014
  21 H     1.0000    0     1.008   -3.519847   -2.946690    3.719328
  22 H     1.0000    0     1.008   -1.168760   -5.332370    3.790292
  23 H     1.0000    0     1.008    0.766789   -0.948011    4.146534
  24 H     1.0000    0     1.008    1.890719   -2.602849    1.504451
  25 C     6.0000    0    12.011    1.202220   -1.072783   -4.194375
  26 H     1.0000    0     1.008    0.792396   -1.810679   -6.097660
  27 H     1.0000    0     1.008    2.268425   -2.538633   -3.168713
  28 H     1.0000    0     1.008    2.452601    0.582771   -4.410528
  29 H     1.0000    0     1.008   -2.216167    1.153975   -3.866603
  30 H     1.0000    0     1.008   -2.521618   -1.949986   -2.635211
  31 C     6.0000    0    12.011    6.210721   11.343114   -4.509670
  32 H     1.0000    0     1.008    5.167569   12.945581   -3.686374
  33 H     1.0000    0     1.008    6.224485   11.611740   -6.575105
  34 H     1.0000    0     1.008    8.183378   11.464047   -3.862229
  35 H     1.0000    0     1.008    3.145708    8.602898   -4.730554
  36 H     1.0000    0     1.008    6.157499    7.234631   -4.580633
  37 C     6.0000    0    12.011   -0.146175   10.781065   -0.383033
  38 H     1.0000    0     1.008   -0.125783   10.999639   -2.454342
  39 H     1.0000    0     1.008   -1.194355   12.396639    0.410177
  40 H     1.0000    0     1.008   -1.174143    9.029476    0.048657
  41 H     1.0000    0     1.008    3.535957   12.458345    0.337295
  42 H     1.0000    0     1.008    2.449753   10.433444    2.769117
  43 C     6.0000    0    12.011    8.352690   11.259783    1.752005
  44 H     1.0000    0     1.008    8.411899   12.506831    0.091947
  45 H     1.0000    0     1.008    7.072942   12.128049    3.142919
  46 H     1.0000    0     1.008   10.257884   11.249134    2.594203
  47 H     1.0000    0     1.008    8.946170    7.615771   -0.098292
  48 H     1.0000    0     1.008    7.437748    7.434430    2.852662
* core charge reduced due to ECP

--------------------------------
INTERNAL COORDINATES (ANGSTROEM)
--------------------------------
 Ru     0   0   0     0.000000000000     0.00000000     0.00000000
 P      1   0   0     2.292007508696     0.00000000     0.00000000
 P      1   2   0     2.298281008999   159.92015027     0.00000000
 C      2   1   3     1.851866853109   117.92406549   208.39047592
 H      1   2   4     1.837817302525   112.91561932     3.06761652
 H      5   1   2     0.858254735304    76.17514683   355.19925988
 H      1   2   4     1.559224691378    86.24292478   272.71799414
 H      1   2   4     1.626689267304    79.92715242   181.47840286
 C      2   1   3     1.849805226996   113.58062848   330.41699427
 C      2   1   3     1.846629913846   112.11515182    88.57990547
 C      3   1   2     1.845186683902   114.55502453    32.92459561
 C      3   1   2     1.851541415283   112.75700097   274.67307332
 C      3   1   2     1.858799800052   117.63031262   152.94603275
 C      9   2   1     1.529607279965   118.27046909   148.29067464
 H     14   9   2     1.100787448439   111.33795318   297.00931857
 H     14   9   2     1.102210586535   110.27900154   178.23798264
 H     14   9   2     1.099544428568   112.84771433    58.02962152
 H      9   2   1     1.099939345936   104.69802287    25.08335313
 H      9   2   1     1.103731676852   105.77473034   273.70489806
 C      4   2   1     1.527444943399   119.48239328   175.90885803
 H     20   4   2     1.101730260080   112.13475439    55.79040731
 H     20   4   2     1.100740854224   111.58698007   294.67819748
 H     20   4   2     1.102178157519   110.61439303   175.45640585
 H      4   2   1     1.103309149554   104.64865531    51.57357035
 H      4   2   1     1.103685479000   105.13731457   300.95967385
 C     10   2   1     1.529390124407   110.57074773    48.36651548
 H     26  10   2     1.101774290414   111.48071058   183.11281064
 H     26  10   2     1.102098714322   111.83591598    62.66518748
 H     26  10   2     1.103818057346   110.43303002   302.83978715
 H     10   2   1     1.102026196275   105.89258194   289.57954923
 H     10   2   1     1.102064469552   111.88537597   173.06905122
 C     12   3   1     1.527671965608   119.73586019   179.59348663
 H     32  12   3     1.101640138461   112.00189187   305.78236778
 H     32  12   3     1.102210445671   110.51101563   186.29371398
 H     32  12   3     1.100533816617   111.80333736    67.03060833
 H     12   3   1     1.102388298567   104.30815915    54.95405992
 H     12   3   1     1.104016290520   105.27163805   304.50353844
 C     11   3   1     1.526636443539   114.25831405   305.92398364
 H     38  11   3     1.102228123546   111.60348330   298.92853650
 H     38  11   3     1.102156203677   110.59928850   179.18411196
 H     38  11   3     1.098745243745   110.43720560    58.40367560
 H     11   3   1     1.101894187310   109.32887256   181.35064426
 H     11   3   1     1.102984575702   105.34794827    66.86433426
 C     13   3   1     1.530174186214   119.94224114   204.15546090
 H     44  13   3     1.099165020698   112.90102556   302.77359717
 H     44  13   3     1.100673541033   111.30705222    63.83224053
 H     44  13   3     1.102312487578   110.24711886   182.56938770
 H     13   3   1     1.104598314493   105.42014741    78.07877040
 H     13   3   1     1.102012494245   104.55526237   327.10738818

---------------------------
INTERNAL COORDINATES (A.U.)
---------------------------
 Ru     0   0   0     0.000000000000     0.00000000     0.00000000
 P      1   0   0     4.331266488326     0.00000000     0.00000000
 P      1   2   0     4.343121685800   159.92015027     0.00000000
 C      2   1   3     3.499521188862   117.92406549   208.39047592
 H      1   2   4     3.472971385953   112.91561932     3.06761652
 H      5   1   2     1.621866402865    76.17514683   355.19925988
 H      1   2   4     2.946507647951    86.24292478   272.71799414
 H      1   2   4     3.073997220194    79.92715242   181.47840286
 C      2   1   3     3.495625280119   113.58062848   330.41699427
 C      2   1   3     3.489624807876   112.11515182    88.57990547
 C      3   1   2     3.486897498533   114.55502453    32.92459561
 C      3   1   2     3.498906200497   112.75700097   274.67307332
 C      3   1   2     3.512622559886   117.63031262   152.94603275
 C      9   2   1     2.890538851586   118.27046909   148.29067464
 H     14   9   2     2.080186809208   111.33795318   297.00931857
 H     14   9   2     2.082876150459   110.27900154   178.23798264
 H     14   9   2     2.077837842072   112.84771433    58.02962152
 H      9   2   1     2.078584127744   104.69802287    25.08335313
 H      9   2   1     2.085750594585   105.77473034   273.70489806
 C      4   2   1     2.886452627667   119.48239328   175.90885803
 H     20   4   2     2.081968465004   112.13475439    55.79040731
 H     20   4   2     2.080098758902   111.58698007   294.67819748
 H     20   4   2     2.082814868501   110.61439303   175.45640585
 H      4   2   1     2.084952133706   104.64865531    51.57357035
 H      4   2   1     2.085663293295   105.13731457   300.95967385
 C     10   2   1     2.890128487053   110.57074773    48.36651548
 H     26  10   2     2.082051670277   111.48071058   183.11281064
 H     26  10   2     2.082664742615   111.83591598    62.66518748
 H     26  10   2     2.085913830062   110.43303002   302.83978715
 H     10   2   1     2.082527703366   105.89258194   289.57954923
 H     10   2   1     2.082600029379   111.88537597   173.06905122
 C     12   3   1     2.886881637467   119.73586019   179.59348663
 H     32  12   3     2.081798159826   112.00189187   305.78236778
 H     32  12   3     2.082875884265   110.51101563   186.29371398
 H     32  12   3     2.079707514526   111.80333736    67.03060833
 H     12   3   1     2.083211977531   104.30815915    54.95405992
 H     12   3   1     2.086288436471   105.27163805   304.50353844
 C     11   3   1     2.884924784352   114.25831405   305.92398364
 H     38  11   3     2.082909290608   111.60348330   298.92853650
 H     38  11   3     2.082773381751   110.59928850   179.18411196
 H     38  11   3     2.076327601627   110.43720560    58.40367560
 H     11   3   1     2.082278242575   109.32887256   181.35064426
 H     11   3   1     2.084338778017   105.34794827    66.86433426
 C     13   3   1     2.891610149141   119.94224114   204.15546090
 H     44  13   3     2.077120865104   112.90102556   302.77359717
 H     44  13   3     2.079971555405   111.30705222    63.83224053
 H     44  13   3     2.083068715524   110.24711886   182.56938770
 H     13   3   1     2.087388302383   105.42014741    78.07877040
 H     13   3   1     2.082501810282   104.55526237   327.10738818

---------------------
BASIS SET INFORMATION
---------------------
There are 4 groups of distinct atoms

 Group   1 Type Ru  : 7s6p5d1f contracted to 5s3p2d1f pattern {31111/411/41/1}
 Group   2 Type P   : 10s7p1d contracted to 4s3p1d pattern {5311/511/1}
 Group   3 Type C   : 7s4p1d contracted to 3s2p1d pattern {511/31/1}
 Group   4 Type H   : 4s1p contracted to 2s1p pattern {31/1}

Atom   0Ru   basis set group =>   1
Atom   1P    basis set group =>   2
Atom   2P    basis set group =>   2
Atom   3C    basis set group =>   3
Atom   4H    basis set group =>   4
Atom   5H    basis set group =>   4
Atom   6H    basis set group =>   4
Atom   7H    basis set group =>   4
Atom   8C    basis set group =>   3
Atom   9C    basis set group =>   3
Atom  10C    basis set group =>   3
Atom  11C    basis set group =>   3
Atom  12C    basis set group =>   3
Atom  13C    basis set group =>   3
Atom  14H    basis set group =>   4
Atom  15H    basis set group =>   4
Atom  16H    basis set group =>   4
Atom  17H    basis set group =>   4
Atom  18H    basis set group =>   4
Atom  19C    basis set group =>   3
Atom  20H    basis set group =>   4
Atom  21H    basis set group =>   4
Atom  22H    basis set group =>   4
Atom  23H    basis set group =>   4
Atom  24H    basis set group =>   4
Atom  25C    basis set group =>   3
Atom  26H    basis set group =>   4
Atom  27H    basis set group =>   4
Atom  28H    basis set group =>   4
Atom  29H    basis set group =>   4
Atom  30H    basis set group =>   4
Atom  31C    basis set group =>   3
Atom  32H    basis set group =>   4
Atom  33H    basis set group =>   4
Atom  34H    basis set group =>   4
Atom  35H    basis set group =>   4
Atom  36H    basis set group =>   4
Atom  37C    basis set group =>   3
Atom  38H    basis set group =>   4
Atom  39H    basis set group =>   4
Atom  40H    basis set group =>   4
Atom  41H    basis set group =>   4
Atom  42H    basis set group =>   4
Atom  43C    basis set group =>   3
Atom  44H    basis set group =>   4
Atom  45H    basis set group =>   4
Atom  46H    basis set group =>   4
Atom  47H    basis set group =>   4
Atom  48H    basis set group =>   4
---------------------------------
AUXILIARY/J BASIS SET INFORMATION
---------------------------------
There are 4 groups of distinct atoms

 Group   1 Type Ru  : 11s5p5d3f3g contracted to 8s5p5d2f3g pattern {41111111/11111/11111/21/111}
 Group   2 Type P   : 14s5p5d2f1g contracted to 8s4p3d1f1g pattern {71111111/2111/311/2/1}
 Group   3 Type C   : 12s5p4d2f1g contracted to 6s4p3d1f1g pattern {711111/2111/211/2/1}
 Group   4 Type H   : 5s2p1d contracted to 3s1p1d pattern {311/2/1}

Atom   0Ru   basis set group =>   1
Atom   1P    basis set group =>   2
Atom   2P    basis set group =>   2
Atom   3C    basis set group =>   3
Atom   4H    basis set group =>   4
Atom   5H    basis set group =>   4
Atom   6H    basis set group =>   4
Atom   7H    basis set group =>   4
Atom   8C    basis set group =>   3
Atom   9C    basis set group =>   3
Atom  10C    basis set group =>   3
Atom  11C    basis set group =>   3
Atom  12C    basis set group =>   3
Atom  13C    basis set group =>   3
Atom  14H    basis set group =>   4
Atom  15H    basis set group =>   4
Atom  16H    basis set group =>   4
Atom  17H    basis set group =>   4
Atom  18H    basis set group =>   4
Atom  19C    basis set group =>   3
Atom  20H    basis set group =>   4
Atom  21H    basis set group =>   4
Atom  22H    basis set group =>   4
Atom  23H    basis set group =>   4
Atom  24H    basis set group =>   4
Atom  25C    basis set group =>   3
Atom  26H    basis set group =>   4
Atom  27H    basis set group =>   4
Atom  28H    basis set group =>   4
Atom  29H    basis set group =>   4
Atom  30H    basis set group =>   4
Atom  31C    basis set group =>   3
Atom  32H    basis set group =>   4
Atom  33H    basis set group =>   4
Atom  34H    basis set group =>   4
Atom  35H    basis set group =>   4
Atom  36H    basis set group =>   4
Atom  37C    basis set group =>   3
Atom  38H    basis set group =>   4
Atom  39H    basis set group =>   4
Atom  40H    basis set group =>   4
Atom  41H    basis set group =>   4
Atom  42H    basis set group =>   4
Atom  43C    basis set group =>   3
Atom  44H    basis set group =>   4
Atom  45H    basis set group =>   4
Atom  46H    basis set group =>   4
Atom  47H    basis set group =>   4
Atom  48H    basis set group =>   4
-------------------------
ECP PARAMETER INFORMATION
-------------------------

 Group 1, Type Ru ECP Def2-ECP (replacing 28 core electrons, lmax=3)

Atom   0Ru   ECP group =>   1

------------------------------------------------------------------------------
                             ORCA STARTUP CALCULATIONS
                           -- RI-GTO INTEGRALS CHOSEN --
------------------------------------------------------------------------------
------------------------------------------------------------------------------
                   ___                                                        
                  /   \      - P O W E R E D   B Y -                         
                 /     \                                                     
                 |  |  |   _    _      __       _____    __    __             
                 |  |  |  | |  | |    /  \     |  _  \  |  |  /  |          
                  \  \/   | |  | |   /    \    | | | |  |  | /  /          
                 / \  \   | |__| |  /  /\  \   | |_| |  |  |/  /          
                |  |  |   |  __  | /  /__\  \  |    /   |      \           
                |  |  |   | |  | | |   __   |  |    \   |  |\   \          
                \     /   | |  | | |  |  |  |  | |\  \  |  | \   \       
                 \___/    |_|  |_| |__|  |__|  |_| \__\ |__|  \__/        
                                                                              
                      - O R C A' S   B I G   F R I E N D -                    
                                      &                                       
                       - I N T E G R A L  F E E D E R -                       
                                                                              
 v1 FN, 2020, v2 2021, v3 2022-2024                                           
------------------------------------------------------------------------------


----------------------
SHARK INTEGRAL PACKAGE
----------------------

Number of atoms                             ...     49
Number of basis functions                   ...    405
Number of shells                            ...    201
Maximum angular momentum                    ...      3
Integral batch strategy                     ... SHARK/LIBINT Hybrid
RI-J (if used) integral strategy            ... SPLIT-RIJ (Revised 2003 algorithm where possible)
Printlevel                                  ...      1
Contraction scheme used                     ... SEGMENTED contraction
Prescreening option                         ... SCHWARTZ
   Thresh                                   ... 1.000e-12
   Tcut                                     ... 1.000e-14
   Tpresel                                  ... 1.000e-14 
Coulomb Range Separation                    ... NOT USED
Exchange Range Separation                   ... NOT USED
Multipole approximations                    ... NOT USED
Finite Nucleus Model                        ... NOT USED
CABS basis                                  ... NOT available
Auxiliary Coulomb fitting basis             ... AVAILABLE
   # of basis functions in Aux-J            ...   1153
   # of shells in Aux-J                     ...    407
   Maximum angular momentum in Aux-J        ...      4
Auxiliary J/K fitting basis                 ... NOT available
Auxiliary Correlation fitting basis         ... NOT available
Auxiliary 'external' fitting basis          ... NOT available

Checking pre-screening integrals            ... done (  0.0 sec) Dimension = 201
   => SHARK Basis and OBASIS are compatible. Storing Pre-screening
Shell pair information
Shell pair cut-off parameter TPreSel        ...   1.0e-14
Total number of shell pairs                 ...     20301
Shell pairs after pre-screening             ...     16213
Total number of primitive shell pairs       ...     68584
Primitive shell pairs kept                  ...     36987
          la=0 lb=0:   5819 shell pairs
          la=1 lb=0:   6203 shell pairs
          la=1 lb=1:   1658 shell pairs
          la=2 lb=0:   1477 shell pairs
          la=2 lb=1:    774 shell pairs
          la=2 lb=2:     97 shell pairs
          la=3 lb=0:    112 shell pairs
          la=3 lb=1:     56 shell pairs
          la=3 lb=2:     16 shell pairs
          la=3 lb=3:      1 shell pairs

Checking whether 4 symmetric matrices of dimension 405 fit in memory
:Max Core in MB      =   4096.00
 MB in use           =     23.16
 MB left             =   4072.84
 MB needed           =      2.51
 Data fit in memory  = YES
Calculating RI/J V-Matrix + Cholesky decomp.... done (  0.0 sec)
Calculating Nuclear repulsion               ... done (  0.0 sec) ENN=   1578.971873614413 Eh

Diagonalization of the overlap matrix:
Smallest eigenvalue                        ... 1.472e-03
Time for diagonalization                   ...    0.011 sec
Threshold for overlap eigenvalues          ... 1.000e-07
Number of eigenvalues below threshold      ... 0
Time for construction of square roots      ...    0.006 sec
Total time needed                          ...    0.018 sec

-------------------
DFT GRID GENERATION
-------------------

General Integration Accuracy     IntAcc      ... 4.959
Radial Grid Type                 RadialGrid  ... OptM3 with GC (2021)
Angular Grid (max. ang.)         AngularGrid ... 6 (Lebedev-590)
Angular grid pruning method      GridPruning ... 4 (adaptive)
Weight generation scheme         WeightScheme... mBecke (2022)
Basis function cutoff            BFCut       ... 1.0000e-12
Integration weight cutoff        WCut        ... 1.0000e-14
Partially contracted basis set               ... off
Rotationally invariant grid construction     ... off
Angular grids for H and He will be reduced by one unit

Total number of grid points                  ...   508429
Total number of batches                      ...     7968
Average number of points per batch           ...       63
Average number of grid points per atom       ...    10376
Grids setup in   6.8 sec
Initializing property integral containers    ... done (  0.0 sec)

SHARK setup successfully completed in   7.3 seconds

Maximum memory used throughout the entire STARTUP-calculation: 177.8 MB
-------------------------------------------------------------------------------
                                 ORCA GUESS
                   Start orbitals & Density for SCF / CASSCF
-------------------------------------------------------------------------------

------------
SCF SETTINGS
------------
Hamiltonian:
 Density Functional     Method          .... DFT(GTOs)
 Exchange Functional    Exchange        .... B88
   X-Alpha parameter    XAlpha          ....  0.666667
   Becke's b parameter  XBeta           ....  0.004200
 Correlation Functional Correlation     .... P86
 LDA part of GGA corr.  LDAOpt          .... PW91-LDA
 Gradients option       PostSCFGGA      .... off
   NL short-range parameter             ....  4.400000
 RI-approximation to the Coulomb term is turned on
   Number of AuxJ basis functions       .... 1153


General Settings:
 Integral files         IntName         .... 15h_pet3_Compound_1
 Hartree-Fock type      HFTyp           .... RHF
 Total Charge           Charge          ....    0
 Multiplicity           Mult            ....    1
 Number of Electrons    NEL             ....  152
 Basis Dimension        Dim             ....  405
 Nuclear Repulsion      ENuc            ....   1578.9718736144 Eh

Convergence Acceleration:
 AO-DIIS                CNVDIIS         .... on
   Start iteration      DIISMaxIt       ....    12
   Startup error        DIISStart       ....  0.200000
   # of expansion vecs  DIISMaxEq       ....     5
   Bias factor          DIISBfac        ....   1.050
   Max. coefficient     DIISMaxC        ....  10.000
 MO-DIIS                CNVKDIIS        .... off
 Trust-Rad. Augm. Hess. CNVTRAH         .... auto
   Auto Start mean grad. ratio tolernc. ....  1.125000
   Auto Start start iteration           ....    50
   Auto Start num. interpolation iter.  ....    10
   Max. Number of Micro iterations      ....    24
   Max. Number of Macro iterations      .... Maxiter - #DIIS iter
   Number of Davidson start vectors     ....     2
   Converg. threshold    (grad. norm)   ....   2.000e-06
   Grad. Scal. Fac. for Micro threshold ....   0.100
   Minimum threshold for Micro iter.    ....   1.000e-02
   NR start threshold (gradient norm)   ....   1.000e-04
   Initial trust radius                 ....   0.400
   Minimum AH scaling param. (alpha)    ....   1.000
   Maximum AH scaling param. (alpha)    .... 1000.000
   Quad. conv. algorithm                .... NR
   White noise on init. David. guess    .... on
   Maximum white noise                  ....   0.010
   Pseudo random numbers                .... off
   Inactive MOs                         .... canonical
   Orbital update algorithm             .... Taylor
   Preconditioner                       .... Diag
   Full preconditioner red. dimension   ....   250
 SOSCF                 CNVSOSCF           .... on
   Start iteration     SOSCFMaxIt         ....   150
   Startup grad/error  SOSCFStart         ....  0.003300
   Hessian update      SOSCFHessUp        .... L-BFGS
   Autom. constraints  SOSCFAutoConstrain .... off
 Level Shifting         CNVShift        .... on
   Level shift para.    LevelShift      ....    0.2500
   Turn off err/grad.   ShiftErr        ....    0.0010
 Zerner damping         CNVZerner       .... off
 Static damping         CNVDamp         .... on
   Fraction old density DampFac         ....    0.7000
   Max. Damping (<1)    DampMax         ....    0.9800
   Min. Damping (>=0)   DampMin         ....    0.0000
   Turn off err/grad.   DampErr         ....    0.1000

SCF Procedure:
 Maximum # iterations   MaxIter         ....   125
 SCF integral mode      SCFMode         .... Direct
   Integral package                     .... SHARK and LIBINT hybrid scheme
 Reset frequency        DirectResetFreq ....    20
 Integral Threshold     Thresh          ....  1.000e-12 Eh
 Primitive CutOff       TCut            ....  1.000e-14 Eh

Convergence Tolerance:
 Convergence Check Mode ConvCheckMode   .... Total+1el-Energy
 Convergence forced     ConvForced      .... 0
 Energy Change          TolE            ....  1.000e-09 Eh
 1-El. energy change                    ....  1.000e-06 Eh
 Orbital Gradient       TolG            ....  2.000e-06
 Orbital Rotation angle TolX            ....  2.000e-06
 DIIS Error             TolErr          ....  1.000e-08

------------------------------
INITIAL GUESS: MODEL POTENTIAL
------------------------------
Loading Hartree-Fock densities                     ... done
Atomic calculation to generate a density for atom 0 (Ru with ECP)
  Multiplicity assumed   :    5
  Atomic configuration   : 1s2 2s2 2p6 3s2 3p6 4s2 3d10 4p6 5s2 4d6 
  Number of open shells  : 1
  Command: /cluster/projects/nn14654k/ylvaos/orca_6_1_1_linux_x86-64_shared_openmpi418/orca 15h_pet3_Compound_1_atom44.inp "" > 15h_pet3_Compound_1_atom44.out
Returned from the atomic calculation with res=0
Calculating cut-offs                               ... done
Initializing the effective Hamiltonian             ... done
Setting up the integral package (SHARK)            ... done
Starting the Coulomb interaction                   ... done (   0.7 sec)
Making the grid                                    ... done (   0.5 sec)
Mapping shells                                     ... done
Starting the XC term evaluation                    ... done (   0.4 sec)
  promolecular density results
     # of electrons  =    179.983270455
     EX              =   -246.440075476
     EC              =     -7.671317561
     EX+EC           =   -254.111393037
Transforming the Hamiltonian                       ... done (   0.0 sec)
Diagonalizing the Hamiltonian                      ... done (   0.0 sec)
Back transforming the eigenvectors                 ... done (   0.0 sec)
Now organizing SCF variables                       ... done
                      ------------------
                      INITIAL GUESS DONE (   2.8 sec)
                      ------------------
             **** ENERGY FILE WAS UPDATED (15h_pet3_Compound_1.en.tmp) ****
Finished Guess after   2.9 sec
Maximum memory used throughout the entire GUESS-calculation: 39.2 MB

-------------------------------------------------------------------------------------------
                                      ORCA LEAN-SCF
                              memory conserving SCF solver
-------------------------------------------------------------------------------------------

----------------------------------------D-I-I-S--------------------------------------------
Iteration    Energy (Eh)           Delta-E    RMSDP     MaxDP     DIISErr   Damp  Time(sec)
-------------------------------------------------------------------------------------------
               ***  Starting incremental Fock matrix formation  ***
    1    -1254.4948928781520863     0.00e+00  2.19e-03  8.49e-02  4.78e-01  0.700   5.6
Warning: op=0 Small HOMO/LUMO gap (   0.062) - skipping pre-diagonalization
         Will do a full diagonalization
    2    -1254.7449824038242241    -2.50e-01  1.56e-03  4.08e-02  3.21e-01  0.700   4.8
    3    -1254.8316846694190190    -8.67e-02  7.41e-04  2.17e-02  2.20e-01  0.700   4.9
                               ***Turning on AO-DIIS***
    4    -1254.8788629889584172    -4.72e-02  3.13e-04  1.65e-02  1.54e-01  0.700   4.7
    5    -1254.9144917565588457    -3.56e-02  1.49e-04  9.79e-03  1.07e-01  0.700   4.6
    6    -1254.9397886561644100    -2.53e-02  9.44e-05  7.87e-03  7.55e-02  0.700   4.3
    7    -1254.9574395706974883    -1.77e-02  2.24e-04  1.94e-02  5.29e-02  0.000   4.4
                              *** Initializing SOSCF ***
---------------------------------------S-O-S-C-F--------------------------------------
Iteration    Energy (Eh)           Delta-E    RMSDP     MaxDP     MaxGrad    Time(sec)
--------------------------------------------------------------------------------------
    8    -1254.9983923398997376    -4.10e-02  4.66e-05  2.94e-03  1.16e-03     4.6
               *** Restarting incremental Fock matrix formation ***
    9    -1254.9983904212342622     1.92e-06  1.36e-04  1.04e-02  9.80e-04     5.9
   10    -1254.9980735615474714     3.17e-04  1.15e-04  8.72e-03  4.17e-03     4.1
   11    -1254.9984119220810044    -3.38e-04  1.86e-05  6.68e-04  8.26e-05     4.2
   12    -1254.9984095296774740     2.39e-06  1.15e-05  4.36e-04  1.24e-04     4.0
   13    -1254.9984134024882678    -3.87e-06  1.78e-06  6.56e-05  7.64e-06     3.9
   14    -1254.9984133871855647     1.53e-08  1.03e-06  4.44e-05  1.17e-05     3.6
   15    -1254.9984134120875297    -2.49e-08  3.10e-07  1.01e-05  1.41e-06     3.6
   16    -1254.9984134118192287     2.68e-10  1.73e-07  5.74e-06  1.68e-06     3.4
                 **** Energy Check signals convergence ****

               *****************************************************
               *                     SUCCESS                       *
               *           SCF CONVERGED AFTER  16 CYCLES          *
               *****************************************************

             **** ENERGY FILE WAS UPDATED (15h_pet3_Compound_1.en.tmp) ****

----------------
TOTAL SCF ENERGY
----------------

Total Energy       :      -1254.99841341194974 Eh          -34150.24299 eV

Components:
Nuclear Repulsion  :       1578.97187361441297 Eh           42966.00903 eV
Electronic Energy  :      -2833.97028702636271 Eh          -77116.25202 eV
One Electron Energy:      -4893.97000636098346 Eh         -133171.69419 eV
Two Electron Energy:       2059.99971933462075 Eh           56055.44217 eV

Virial components:
Potential Energy   :      -2440.06738110237438 Eh          -66397.60903 eV
Kinetic Energy     :       1185.06896769042442 Eh           32247.36604 eV
Virial Ratio       :          2.05900875613831

DFT components:
N(Alpha)           :       75.999993407594 electrons
N(Beta)            :       75.999993407594 electrons
N(Total)           :      151.999986815187 electrons
E(X)               :     -128.782520621836 Eh       
E(C)               :       -5.764362535015 Eh       
E(XC)              :     -134.546883156852 Eh       

---------------
SCF CONVERGENCE
---------------

  Last Energy change         ...   -2.6830e-10  Tolerance :   1.0000e-09
  Last MAX-Density change    ...    5.7358e-06  Tolerance :   1.0000e-08
  Last RMS-Density change    ...    1.7272e-07  Tolerance :   1.0000e-09
  Last DIIS Error            ...    1.1594e-03  Tolerance :   1.0000e-08
  Last Orbital Gradient      ...    1.6846e-06  Tolerance :   2.0000e-06
  Last Orbital Rotation      ...    5.6319e-06  Tolerance :   2.0000e-06


----------------
ORBITAL ENERGIES
----------------

  NO   OCC          E(Eh)            E(eV) 
   0   2.0000     -76.346721     -2077.4999 
   1   2.0000     -76.346560     -2077.4955 
   2   2.0000      -9.910268      -269.6721 
   3   2.0000      -9.909593      -269.6537 
   4   2.0000      -9.909525      -269.6519 
   5   2.0000      -9.908804      -269.6323 
   6   2.0000      -9.908695      -269.6293 
   7   2.0000      -9.908325      -269.6192 
   8   2.0000      -9.908290      -269.6183 
   9   2.0000      -9.907564      -269.5985 
  10   2.0000      -9.907114      -269.5863 
  11   2.0000      -9.906324      -269.5648 
  12   2.0000      -9.905310      -269.5372 
  13   2.0000      -9.896406      -269.2949 
  14   2.0000      -6.311927      -171.7563 
  15   2.0000      -6.311574      -171.7467 
  16   2.0000      -4.533513      -123.3632 
  17   2.0000      -4.533356      -123.3589 
  18   2.0000      -4.533249      -123.3560 
  19   2.0000      -4.532994      -123.3490 
  20   2.0000      -4.530548      -123.2825 
  21   2.0000      -4.530165      -123.2721 
  22   2.0000      -2.802416       -76.2576 
  23   2.0000      -1.687325       -45.9144 
  24   2.0000      -1.682031       -45.7704 
  25   2.0000      -1.677281       -45.6411 
  26   2.0000      -0.714771       -19.4499 
  27   2.0000      -0.712679       -19.3930 
  28   2.0000      -0.676440       -18.4069 
  29   2.0000      -0.674430       -18.3522 
  30   2.0000      -0.674068       -18.3423 
  31   2.0000      -0.670612       -18.2483 
  32   2.0000      -0.593958       -16.1624 
  33   2.0000      -0.592079       -16.1113 
  34   2.0000      -0.550953       -14.9922 
  35   2.0000      -0.548086       -14.9142 
  36   2.0000      -0.546480       -14.8705 
  37   2.0000      -0.545118       -14.8334 
  38   2.0000      -0.467630       -12.7249 
  39   2.0000      -0.461936       -12.5699 
  40   2.0000      -0.416561       -11.3352 
  41   2.0000      -0.411758       -11.2045 
  42   2.0000      -0.410453       -11.1690 
  43   2.0000      -0.407586       -11.0910 
  44   2.0000      -0.400765       -10.9054 
  45   2.0000      -0.391315       -10.6482 
  46   2.0000      -0.391272       -10.6471 
  47   2.0000      -0.375952       -10.2302 
  48   2.0000      -0.369674       -10.0593 
  49   2.0000      -0.365338        -9.9414 
  50   2.0000      -0.363092        -9.8802 
  51   2.0000      -0.362251        -9.8573 
  52   2.0000      -0.361696        -9.8422 
  53   2.0000      -0.339950        -9.2505 
  54   2.0000      -0.339347        -9.2341 
  55   2.0000      -0.335476        -9.1288 
  56   2.0000      -0.333700        -9.0804 
  57   2.0000      -0.327178        -8.9030 
  58   2.0000      -0.322203        -8.7676 
  59   2.0000      -0.319656        -8.6983 
  60   2.0000      -0.317986        -8.6528 
  61   2.0000      -0.306417        -8.3380 
  62   2.0000      -0.305083        -8.3017 
  63   2.0000      -0.304816        -8.2945 
  64   2.0000      -0.297484        -8.0950 
  65   2.0000      -0.271584        -7.3902 
  66   2.0000      -0.268027        -7.2934 
  67   2.0000      -0.265389        -7.2216 
  68   2.0000      -0.263359        -7.1664 
  69   2.0000      -0.262730        -7.1493 
  70   2.0000      -0.245414        -6.6781 
  71   2.0000      -0.221073        -6.0157 
  72   2.0000      -0.208186        -5.6650 
  73   2.0000      -0.163171        -4.4401 
  74   2.0000      -0.146305        -3.9812 
  75   2.0000      -0.133510        -3.6330 
  76   0.0000      -0.055542        -1.5114 
  77   0.0000       0.010774         0.2932 
  78   0.0000       0.027475         0.7476 
  79   0.0000       0.033235         0.9044 
  80   0.0000       0.040793         1.1100 
  81   0.0000       0.044589         1.2133 
  82   0.0000       0.052428         1.4266 
  83   0.0000       0.054949         1.4952 
  84   0.0000       0.058793         1.5998 
  85   0.0000       0.062031         1.6879 
  86   0.0000       0.069601         1.8939 
*Only the first 10 virtual orbitals were printed.

                    ********************************
                    * MULLIKEN POPULATION ANALYSIS *
                    ********************************

-----------------------
MULLIKEN ATOMIC CHARGES
-----------------------
   0 Ru:   -0.614263
   1 P :    0.187655
   2 P :    0.204008
   3 C :   -0.152868
   4 H :    0.019601
   5 H :    0.041526
   6 H :    0.016549
   7 H :   -0.067302
   8 C :   -0.138258
   9 C :   -0.141692
  10 C :   -0.152777
  11 C :   -0.159380
  12 C :   -0.151268
  13 C :   -0.031856
  14 H :    0.031860
  15 H :    0.031253
  16 H :    0.022653
  17 H :    0.078530
  18 H :    0.050616
  19 C :   -0.035027
  20 H :    0.032398
  21 H :    0.040422
  22 H :    0.029623
  23 H :    0.062089
  24 H :    0.049316
  25 C :   -0.034134
  26 H :    0.028905
  27 H :    0.032257
  28 H :    0.068350
  29 H :    0.064826
  30 H :    0.032425
  31 C :   -0.036233
  32 H :    0.034034
  33 H :    0.028843
  34 H :    0.039674
  35 H :    0.070377
  36 H :    0.058394
  37 C :   -0.018112
  38 H :    0.022751
  39 H :    0.022386
  40 H :    0.067035
  41 H :    0.035383
  42 H :    0.062004
  43 C :   -0.035095
  44 H :    0.025654
  45 H :    0.035663
  46 H :    0.029279
  47 H :    0.044324
  48 H :    0.067607
Sum of atomic charges:   -0.0000000

--------------------------------
MULLIKEN REDUCED ORBITAL CHARGES
--------------------------------
  0 Rus       :     2.624758  s :     2.624758
      pz      :     2.136316  p :     6.556458
      px      :     2.209649
      py      :     2.210492
      dz2     :     1.619245  d :     7.427694
      dxz     :     1.347928
      dyz     :     1.498469
      dx2y2   :     1.611561
      dxy     :     1.350491
      f0      :     0.000526  f :     0.005354
      f+1     :     0.000798
      f-1     :     0.000879
      f+2     :     0.000315
      f-2     :     0.001165
      f+3     :     0.001026
      f-3     :     0.000643

  1 P s       :     5.482862  s :     5.482862
      pz      :     2.913786  p :     9.078025
      px      :     3.113502
      py      :     3.050736
      dz2     :     0.042659  d :     0.251459
      dxz     :     0.044166
      dyz     :     0.067505
      dx2y2   :     0.060928
      dxy     :     0.036201

  2 P s       :     5.481222  s :     5.481222
      pz      :     2.922022  p :     9.064907
      px      :     2.955737
      py      :     3.187148
      dz2     :     0.054488  d :     0.249862
      dxz     :     0.048504
      dyz     :     0.047462
      dx2y2   :     0.047988
      dxy     :     0.051421

  3 C s       :     3.084620  s :     3.084620
      pz      :     1.028494  p :     3.039886
      px      :     1.011548
      py      :     0.999844
      dz2     :     0.004152  d :     0.028362
      dxz     :     0.005053
      dyz     :     0.006513
      dx2y2   :     0.005908
      dxy     :     0.006735

  4 H s       :     0.961057  s :     0.961057
      pz      :     0.004238  p :     0.019342
      px      :     0.007431
      py      :     0.007674

  5 H s       :     0.938991  s :     0.938991
      pz      :     0.004671  p :     0.019484
      px      :     0.006487
      py      :     0.008326

  6 H s       :     0.964617  s :     0.964617
      pz      :     0.007254  p :     0.018835
      px      :     0.005803
      py      :     0.005778

  7 H s       :     1.052611  s :     1.052611
      pz      :     0.004701  p :     0.014690
      px      :     0.005262
      py      :     0.004728

  8 C s       :     3.072495  s :     3.072495
      pz      :     1.020451  p :     3.038013
      px      :     0.969391
      py      :     1.048171
      dz2     :     0.008078  d :     0.027750
      dxz     :     0.004212
      dyz     :     0.001863
      dx2y2   :     0.008573
      dxy     :     0.005023

  9 C s       :     3.071905  s :     3.071905
      pz      :     1.023235  p :     3.041642
      px      :     1.009711
      py      :     1.008696
      dz2     :     0.005711  d :     0.028146
      dxz     :     0.005198
      dyz     :     0.004902
      dx2y2   :     0.003301
      dxy     :     0.009035

 10 C s       :     3.077742  s :     3.077742
      pz      :     1.035929  p :     3.046596
      px      :     0.998028
      py      :     1.012640
      dz2     :     0.008630  d :     0.028439
      dxz     :     0.004146
      dyz     :     0.001896
      dx2y2   :     0.005212
      dxy     :     0.008556

 11 C s       :     3.095309  s :     3.095309
      pz      :     1.037517  p :     3.035794
      px      :     1.020475
      py      :     0.977801
      dz2     :     0.005490  d :     0.028278
      dxz     :     0.004201
      dyz     :     0.005701
      dx2y2   :     0.006412
      dxy     :     0.006474

 12 C s       :     3.080736  s :     3.080736
      pz      :     1.021991  p :     3.042481
      px      :     1.024431
      py      :     0.996059
      dz2     :     0.003351  d :     0.028051
      dxz     :     0.004701
      dyz     :     0.008254
      dx2y2   :     0.005598
      dxy     :     0.006148

 13 C s       :     2.998181  s :     2.998181
      pz      :     1.017057  p :     3.007170
      px      :     0.979591
      py      :     1.010522
      dz2     :     0.007892  d :     0.026506
      dxz     :     0.004558
      dyz     :     0.001842
      dx2y2   :     0.007552
      dxy     :     0.004662

 14 H s       :     0.945590  s :     0.945590
      pz      :     0.012466  p :     0.022550
      px      :     0.004733
      py      :     0.005351

 15 H s       :     0.946311  s :     0.946311
      pz      :     0.006590  p :     0.022436
      px      :     0.009442
      py      :     0.006404

 16 H s       :     0.954360  s :     0.954360
      pz      :     0.005800  p :     0.022987
      px      :     0.004648
      py      :     0.012539

 17 H s       :     0.898679  s :     0.898679
      pz      :     0.005564  p :     0.022791
      px      :     0.004462
      py      :     0.012765

 18 H s       :     0.926873  s :     0.926873
      pz      :     0.012641  p :     0.022511
      px      :     0.004633
      py      :     0.005237

 19 C s       :     3.007829  s :     3.007829
      pz      :     1.012657  p :     3.000712
      px      :     0.998709
      py      :     0.989346
      dz2     :     0.003151  d :     0.026485
      dxz     :     0.005908
      dyz     :     0.006403
      dx2y2   :     0.004919
      dxy     :     0.006104

 20 H s       :     0.944996  s :     0.944996
      pz      :     0.010996  p :     0.022607
      px      :     0.005718
      py      :     0.005893

 21 H s       :     0.936943  s :     0.936943
      pz      :     0.007157  p :     0.022635
      px      :     0.009572
      py      :     0.005906

 22 H s       :     0.947860  s :     0.947860
      pz      :     0.007443  p :     0.022517
      px      :     0.005667
      py      :     0.009408

 23 H s       :     0.915438  s :     0.915438
      pz      :     0.011019  p :     0.022473
      px      :     0.005455
      py      :     0.005998

 24 H s       :     0.928085  s :     0.928085
      pz      :     0.006604  p :     0.022599
      px      :     0.009953
      py      :     0.006042

 25 C s       :     3.004724  s :     3.004724
      pz      :     0.990645  p :     3.002591
      px      :     0.987150
      py      :     1.024796
      dz2     :     0.006199  d :     0.026820
      dxz     :     0.004699
      dyz     :     0.004585
      dx2y2   :     0.002816
      dxy     :     0.008520

 26 H s       :     0.948730  s :     0.948730
      pz      :     0.011305  p :     0.022365
      px      :     0.004818
      py      :     0.006242

 27 H s       :     0.945297  s :     0.945297
      pz      :     0.006910  p :     0.022446
      px      :     0.006608
      py      :     0.008929

 28 H s       :     0.909132  s :     0.909132
      pz      :     0.005282  p :     0.022519
      px      :     0.007091
      py      :     0.010146

 29 H s       :     0.912763  s :     0.912763
      pz      :     0.006929  p :     0.022411
      px      :     0.006155
      py      :     0.009327

 30 H s       :     0.945339  s :     0.945339
      pz      :     0.005091  p :     0.022235
      px      :     0.007341
      py      :     0.009803

 31 C s       :     3.009089  s :     3.009089
      pz      :     1.005895  p :     3.000586
      px      :     1.010365
      py      :     0.984326
      dz2     :     0.007400  d :     0.026558
      dxz     :     0.002504
      dyz     :     0.004318
      dx2y2   :     0.006805
      dxy     :     0.005530

 32 H s       :     0.943344  s :     0.943344
      pz      :     0.006669  p :     0.022622
      px      :     0.007008
      py      :     0.008945

 33 H s       :     0.948641  s :     0.948641
      pz      :     0.012567  p :     0.022516
      px      :     0.005201
      py      :     0.004748

 34 H s       :     0.937640  s :     0.937640
      pz      :     0.006366  p :     0.022686
      px      :     0.011751
      py      :     0.004569

 35 H s       :     0.906864  s :     0.906864
      pz      :     0.006417  p :     0.022759
      px      :     0.011638
      py      :     0.004704

 36 H s       :     0.919240  s :     0.919240
      pz      :     0.006070  p :     0.022366
      px      :     0.007445
      py      :     0.008851

 37 C s       :     2.993063  s :     2.993063
      pz      :     1.001597  p :     2.998685
      px      :     0.969569
      py      :     1.027519
      dz2     :     0.008234  d :     0.026364
      dxz     :     0.003882
      dyz     :     0.002166
      dx2y2   :     0.004299
      dxy     :     0.007784

 38 H s       :     0.954702  s :     0.954702
      pz      :     0.012490  p :     0.022548
      px      :     0.004405
      py      :     0.005652

 39 H s       :     0.955224  s :     0.955224
      pz      :     0.006268  p :     0.022390
      px      :     0.006424
      py      :     0.009698

 40 H s       :     0.909429  s :     0.909429
      pz      :     0.005352  p :     0.023536
      px      :     0.005798
      py      :     0.012386

 41 H s       :     0.942253  s :     0.942253
      pz      :     0.005444  p :     0.022363
      px      :     0.006364
      py      :     0.010555

 42 H s       :     0.915682  s :     0.915682
      pz      :     0.012501  p :     0.022314
      px      :     0.004483
      py      :     0.005330

 43 C s       :     3.002475  s :     3.002475
      pz      :     1.023482  p :     3.006166
      px      :     1.003078
      py      :     0.979606
      dz2     :     0.002529  d :     0.026454
      dxz     :     0.005128
      dyz     :     0.008076
      dx2y2   :     0.006656
      dxy     :     0.004065

 44 H s       :     0.951271  s :     0.951271
      pz      :     0.010469  p :     0.023076
      px      :     0.005485
      py      :     0.007121

 45 H s       :     0.941809  s :     0.941809
      pz      :     0.008622  p :     0.022528
      px      :     0.008160
      py      :     0.005746

 46 H s       :     0.948255  s :     0.948255
      pz      :     0.006544  p :     0.022466
      px      :     0.011423
      py      :     0.004499

 47 H s       :     0.933222  s :     0.933222
      pz      :     0.007779  p :     0.022455
      px      :     0.008649
      py      :     0.006026

 48 H s       :     0.909821  s :     0.909821
      pz      :     0.010404  p :     0.022572
      px      :     0.005160
      py      :     0.007008



                     *******************************
                     * LOEWDIN POPULATION ANALYSIS *
                     *******************************

----------------------
LOEWDIN ATOMIC CHARGES
----------------------
   0 Ru:   -1.355063
   1 P :    0.862241
   2 P :    0.861024
   3 C :   -0.183112
   4 H :    0.095269
   5 H :    0.099459
   6 H :    0.039406
   7 H :   -0.031556
   8 C :   -0.172127
   9 C :   -0.174874
  10 C :   -0.170389
  11 C :   -0.178564
  12 C :   -0.184340
  13 C :   -0.079710
  14 H :    0.028071
  15 H :    0.031178
  16 H :    0.023184
  17 H :    0.045825
  18 H :    0.035235
  19 C :   -0.081283
  20 H :    0.024562
  21 H :    0.027712
  22 H :    0.030930
  23 H :    0.038806
  24 H :    0.033603
  25 C :   -0.066401
  26 H :    0.029127
  27 H :    0.027646
  28 H :    0.046855
  29 H :    0.038763
  30 H :    0.020291
  31 C :   -0.080529
  32 H :    0.026056
  33 H :    0.030751
  34 H :    0.026592
  35 H :    0.039939
  36 H :    0.037866
  37 C :   -0.069644
  38 H :    0.025439
  39 H :    0.026284
  40 H :    0.042579
  41 H :    0.020855
  42 H :    0.038431
  43 C :   -0.081923
  44 H :    0.023680
  45 H :    0.028343
  46 H :    0.030737
  47 H :    0.033343
  48 H :    0.039437

-------------------------------
LOEWDIN REDUCED ORBITAL CHARGES
-------------------------------
  0 Rus       :     2.498961  s :     2.498961
      pz      :     2.221536  p :     7.038538
      px      :     2.386237
      py      :     2.430765
      dz2     :     1.661470  d :     7.808398
      dxz     :     1.442865
      dyz     :     1.560377
      dx2y2   :     1.673462
      dxy     :     1.470224
      f0      :     0.000911  f :     0.009166
      f+1     :     0.001405
      f-1     :     0.001547
      f+2     :     0.000530
      f-2     :     0.002022
      f+3     :     0.001690
      f-3     :     0.001061

  1 P s       :     5.053653  s :     5.053653
      pz      :     2.832151  p :     8.749982
      px      :     2.983784
      py      :     2.934048
      dz2     :     0.056336  d :     0.334124
      dxz     :     0.056804
      dyz     :     0.092204
      dx2y2   :     0.080017
      dxy     :     0.048763

  2 P s       :     5.056796  s :     5.056796
      pz      :     2.838578  p :     8.749711
      px      :     2.858780
      py      :     3.052352
      dz2     :     0.074409  d :     0.332469
      dxz     :     0.062870
      dyz     :     0.061125
      dx2y2   :     0.062918
      dxy     :     0.071146

  3 C s       :     2.893820  s :     2.893820
      pz      :     1.084375  p :     3.217400
      px      :     1.062238
      py      :     1.070788
      dz2     :     0.011253  d :     0.071892
      dxz     :     0.011780
      dyz     :     0.016950
      dx2y2   :     0.012890
      dxy     :     0.019019

  4 H s       :     0.846196  s :     0.846196
      pz      :     0.011533  p :     0.058536
      px      :     0.017891
      py      :     0.029111

  5 H s       :     0.841140  s :     0.841140
      pz      :     0.009461  p :     0.059402
      px      :     0.026498
      py      :     0.023443

  6 H s       :     0.900415  s :     0.900415
      pz      :     0.022016  p :     0.060179
      px      :     0.019389
      py      :     0.018774

  7 H s       :     0.988820  s :     0.988820
      pz      :     0.014256  p :     0.042735
      px      :     0.014681
      py      :     0.013798

  8 C s       :     2.888678  s :     2.888678
      pz      :     1.074897  p :     3.213255
      px      :     1.052746
      py      :     1.085612
      dz2     :     0.021265  d :     0.070193
      dxz     :     0.010266
      dyz     :     0.004632
      dx2y2   :     0.021370
      dxy     :     0.012661

  9 C s       :     2.889873  s :     2.889873
      pz      :     1.088172  p :     3.213765
      px      :     1.052745
      py      :     1.072848
      dz2     :     0.013816  d :     0.071237
      dxz     :     0.013648
      dyz     :     0.012621
      dx2y2   :     0.008353
      dxy     :     0.022798

 10 C s       :     2.888187  s :     2.888187
      pz      :     1.078383  p :     3.210567
      px      :     1.054206
      py      :     1.077978
      dz2     :     0.022123  d :     0.071635
      dxz     :     0.010270
      dyz     :     0.004818
      dx2y2   :     0.013990
      dxy     :     0.020434

 11 C s       :     2.891161  s :     2.891161
      pz      :     1.096894  p :     3.215859
      px      :     1.073821
      py      :     1.045145
      dz2     :     0.015146  d :     0.071544
      dxz     :     0.010519
      dyz     :     0.012964
      dx2y2   :     0.015868
      dxy     :     0.017046

 12 C s       :     2.895033  s :     2.895033
      pz      :     1.081772  p :     3.218466
      px      :     1.088068
      py      :     1.048626
      dz2     :     0.008802  d :     0.070841
      dxz     :     0.012913
      dyz     :     0.019695
      dx2y2   :     0.015247
      dxy     :     0.014184

 13 C s       :     2.844076  s :     2.844076
      pz      :     1.066946  p :     3.165859
      px      :     1.036228
      py      :     1.062685
      dz2     :     0.020836  d :     0.069776
      dxz     :     0.011613
      dyz     :     0.004797
      dx2y2   :     0.020087
      dxy     :     0.012442

 14 H s       :     0.906697  s :     0.906697
      pz      :     0.038994  p :     0.065232
      px      :     0.013035
      py      :     0.013202

 15 H s       :     0.903892  s :     0.903892
      pz      :     0.017682  p :     0.064930
      px      :     0.030061
      py      :     0.017188

 16 H s       :     0.910610  s :     0.910610
      pz      :     0.014050  p :     0.066206
      px      :     0.012877
      py      :     0.039279

 17 H s       :     0.883531  s :     0.883531
      pz      :     0.014798  p :     0.070644
      px      :     0.013620
      py      :     0.042227

 18 H s       :     0.895765  s :     0.895765
      pz      :     0.040981  p :     0.068999
      px      :     0.014042
      py      :     0.013976

 19 C s       :     2.845374  s :     2.845374
      pz      :     1.067547  p :     3.166135
      px      :     1.049794
      py      :     1.048794
      dz2     :     0.009140  d :     0.069775
      dxz     :     0.014916
      dyz     :     0.016507
      dx2y2   :     0.011032
      dxy     :     0.018179

 20 H s       :     0.910043  s :     0.910043
      pz      :     0.033316  p :     0.065395
      px      :     0.015778
      py      :     0.016302

 21 H s       :     0.906757  s :     0.906757
      pz      :     0.019524  p :     0.065531
      px      :     0.029437
      py      :     0.016570

 22 H s       :     0.903931  s :     0.903931
      pz      :     0.020170  p :     0.065139
      px      :     0.015968
      py      :     0.029000

 23 H s       :     0.891781  s :     0.891781
      pz      :     0.035748  p :     0.069413
      px      :     0.015853
      py      :     0.017812

 24 H s       :     0.897043  s :     0.897043
      pz      :     0.018166  p :     0.069354
      px      :     0.032535
      py      :     0.018654

 25 C s       :     2.842649  s :     2.842649
      pz      :     1.056450  p :     3.153954
      px      :     1.034345
      py      :     1.063160
      dz2     :     0.015559  d :     0.069797
      dxz     :     0.013529
      dyz     :     0.012015
      dx2y2   :     0.007452
      dxy     :     0.021242

 26 H s       :     0.905922  s :     0.905922
      pz      :     0.035023  p :     0.064951
      px      :     0.013802
      py      :     0.016126

 27 H s       :     0.907288  s :     0.907288
      pz      :     0.019304  p :     0.065066
      px      :     0.019909
      py      :     0.025854

 28 H s       :     0.887142  s :     0.887142
      pz      :     0.012925  p :     0.066003
      px      :     0.022354
      py      :     0.030724

 29 H s       :     0.891498  s :     0.891498
      pz      :     0.023291  p :     0.069738
      px      :     0.019049
      py      :     0.027398

 30 H s       :     0.908943  s :     0.908943
      pz      :     0.016065  p :     0.070766
      px      :     0.024106
      py      :     0.030595

 31 C s       :     2.844993  s :     2.844993
      pz      :     1.067218  p :     3.165632
      px      :     1.060565
      py      :     1.037849
      dz2     :     0.020007  d :     0.069904
      dxz     :     0.006511
      dyz     :     0.011075
      dx2y2   :     0.017467
      dxy     :     0.014845

 32 H s       :     0.908590  s :     0.908590
      pz      :     0.017203  p :     0.065353
      px      :     0.019575
      py      :     0.028576

 33 H s       :     0.904160  s :     0.904160
      pz      :     0.038856  p :     0.065089
      px      :     0.012678
      py      :     0.013554

 34 H s       :     0.907770  s :     0.907770
      pz      :     0.015735  p :     0.065638
      px      :     0.036954
      py      :     0.012950

 35 H s       :     0.889817  s :     0.889817
      pz      :     0.021411  p :     0.070245
      px      :     0.035939
      py      :     0.012894

 36 H s       :     0.893225  s :     0.893225
      pz      :     0.019816  p :     0.068909
      px      :     0.020858
      py      :     0.028235

 37 C s       :     2.841134  s :     2.841134
      pz      :     1.059489  p :     3.159197
      px      :     1.025909
      py      :     1.073800
      dz2     :     0.021609  d :     0.069312
      dxz     :     0.010074
      dyz     :     0.005647
      dx2y2   :     0.012669
      dxy     :     0.019313

 38 H s       :     0.909850  s :     0.909850
      pz      :     0.038824  p :     0.064711
      px      :     0.012708
      py      :     0.013179

 39 H s       :     0.908974  s :     0.908974
      pz      :     0.016398  p :     0.064742
      px      :     0.019683
      py      :     0.028661

 40 H s       :     0.888676  s :     0.888676
      pz      :     0.013622  p :     0.068745
      px      :     0.018788
      py      :     0.036335

 41 H s       :     0.908251  s :     0.908251
      pz      :     0.014597  p :     0.070893
      px      :     0.020129
      py      :     0.036167

 42 H s       :     0.892412  s :     0.892412
      pz      :     0.041043  p :     0.069157
      px      :     0.013626
      py      :     0.014488

 43 C s       :     2.844857  s :     2.844857
      pz      :     1.069656  p :     3.167432
      px      :     1.065429
      py      :     1.032347
      dz2     :     0.007125  d :     0.069633
      dxz     :     0.013846
      dyz     :     0.020304
      dx2y2   :     0.018116
      dxy     :     0.010243

 44 H s       :     0.909800  s :     0.909800
      pz      :     0.030946  p :     0.066521
      px      :     0.012863
      py      :     0.022713

 45 H s       :     0.906274  s :     0.906274
      pz      :     0.024875  p :     0.065383
      px      :     0.023119
      py      :     0.017389

 46 H s       :     0.904199  s :     0.904199
      pz      :     0.017199  p :     0.065064
      px      :     0.034833
      py      :     0.013032

 47 H s       :     0.897849  s :     0.897849
      pz      :     0.022083  p :     0.068808
      px      :     0.028326
      py      :     0.018398

 48 H s       :     0.890770  s :     0.890770
      pz      :     0.033312  p :     0.069793
      px      :     0.014993
      py      :     0.021488



                      *****************************
                      * MAYER POPULATION ANALYSIS *
                      *****************************

  NA   - Mulliken gross atomic population
  ZA   - Total nuclear charge
  QA   - Mulliken gross atomic charge
  VA   - Mayer's total valence
  BVA  - Mayer's bonded valence
  FA   - Mayer's free valence

  ATOM       NA         ZA         QA         VA         BVA        FA
  0 Ru    16.6143    16.0000    -0.6143     4.6238     4.6238    -0.0000
  1 P     14.8123    15.0000     0.1877     4.2035     4.2035    -0.0000
  2 P     14.7960    15.0000     0.2040     4.1884     4.1884     0.0000
  3 C      6.1529     6.0000    -0.1529     4.0079     4.0079    -0.0000
  4 H      0.9804     1.0000     0.0196     1.0075     1.0075    -0.0000
  5 H      0.9585     1.0000     0.0415     1.0061     1.0061    -0.0000
  6 H      0.9835     1.0000     0.0165     1.0039     1.0039     0.0000
  7 H      1.0673     1.0000    -0.0673     0.9892     0.9892    -0.0000
  8 C      6.1383     6.0000    -0.1383     4.0043     4.0043    -0.0000
  9 C      6.1417     6.0000    -0.1417     3.9998     3.9998    -0.0000
 10 C      6.1528     6.0000    -0.1528     4.0157     4.0157     0.0000
 11 C      6.1594     6.0000    -0.1594     3.9924     3.9924     0.0000
 12 C      6.1513     6.0000    -0.1513     4.0038     4.0038    -0.0000
 13 C      6.0319     6.0000    -0.0319     4.0153     4.0153     0.0000
 14 H      0.9681     1.0000     0.0319     0.9930     0.9930    -0.0000
 15 H      0.9687     1.0000     0.0313     0.9828     0.9828    -0.0000
 16 H      0.9773     1.0000     0.0227     1.0069     1.0069    -0.0000
 17 H      0.9215     1.0000     0.0785     0.9838     0.9838    -0.0000
 18 H      0.9494     1.0000     0.0506     0.9819     0.9819    -0.0000
 19 C      6.0350     6.0000    -0.0350     3.9896     3.9896     0.0000
 20 H      0.9676     1.0000     0.0324     0.9961     0.9961    -0.0000
 21 H      0.9596     1.0000     0.0404     0.9918     0.9918    -0.0000
 22 H      0.9704     1.0000     0.0296     0.9838     0.9838     0.0000
 23 H      0.9379     1.0000     0.0621     0.9784     0.9784    -0.0000
 24 H      0.9507     1.0000     0.0493     0.9876     0.9876    -0.0000
 25 C      6.0341     6.0000    -0.0341     4.0056     4.0056    -0.0000
 26 H      0.9711     1.0000     0.0289     0.9827     0.9827    -0.0000
 27 H      0.9677     1.0000     0.0323     0.9926     0.9926    -0.0000
[...]
B(  2-P , 10-C ) :   0.8854 B(  2-P , 11-C ) :   0.8920 B(  2-P , 12-C ) :   0.8958 
B(  3-C , 19-C ) :   0.9802 B(  3-C , 23-H ) :   0.9289 B(  3-C , 24-H ) :   0.9341 
B(  4-H ,  5-H ) :   0.6087 B(  8-C , 13-C ) :   0.9647 B(  8-C , 17-H ) :   0.9358 
B(  8-C , 18-H ) :   0.9352 B(  9-C , 25-C ) :   0.9594 B(  9-C , 29-H ) :   0.9277 
B(  9-C , 30-H ) :   0.9450 B( 10-C , 37-C ) :   0.9745 B( 10-C , 41-H ) :   0.9420 
B( 10-C , 42-H ) :   0.9266 B( 11-C , 31-C ) :   0.9809 B( 11-C , 35-H ) :   0.9343 
B( 11-C , 36-H ) :   0.9305 B( 12-C , 43-C ) :   0.9614 B( 12-C , 47-H ) :   0.9336 
B( 12-C , 48-H ) :   0.9356 B( 13-C , 14-H ) :   0.9590 B( 13-C , 15-H ) :   0.9647 
B( 13-C , 16-H ) :   0.9717 B( 19-C , 20-H ) :   0.9660 B( 19-C , 21-H ) :   0.9595 
B( 19-C , 22-H ) :   0.9599 B( 25-C , 26-H ) :   0.9575 B( 25-C , 27-H ) :   0.9629 
B( 25-C , 28-H ) :   0.9574 B( 31-C , 32-H ) :   0.9668 B( 31-C , 33-H ) :   0.9605 
B( 31-C , 34-H ) :   0.9578 B( 37-C , 38-H ) :   0.9634 B( 37-C , 39-H ) :   0.9572 
B( 37-C , 40-H ) :   0.9566 B( 43-C , 44-H ) :   0.9705 B( 43-C , 45-H ) :   0.9603 
B( 43-C , 46-H ) :   0.9638 

-------
TIMINGS
-------

Total SCF time: 0 days 0 hours 10 min 9 sec 

Total time                  ....     609.947 sec
Sum of individual times     ....     585.524 sec  ( 96.0%)

SCF preparation             ....       0.262 sec  (  0.0%)
Fock matrix formation       ....     561.458 sec  ( 92.1%)
  Startup                   ....       0.125 sec  (  0.0% of F)
  Split-RI-J                ....     171.599 sec  ( 30.6% of F)
  XC integration            ....     414.469 sec  ( 73.8% of F)
    XC Preparation          ....       0.000 sec  (  0.0% of XC)
    Basis function eval.    ....      48.781 sec  ( 11.8% of XC)
    Density eval.           ....     162.137 sec  ( 39.1% of XC)
    XC-Functional eval.     ....       2.575 sec  (  0.6% of XC)
    XC-Potential eval.      ....     197.217 sec  ( 47.6% of XC)
Diagonalization             ....       0.000 sec  (  0.0%)
Density matrix formation    ....       0.723 sec  (  0.1%)
Total Energy calculation    ....       0.127 sec  (  0.0%)
Population analysis         ....       0.745 sec  (  0.1%)
Orbital Transformation      ....       3.461 sec  (  0.6%)
Orbital Orthonormalization  ....       0.000 sec  (  0.0%)
DIIS solution               ....       9.530 sec  (  1.6%)
SOSCF solution              ....       9.219 sec  (  1.5%)
Finished LeanSCF after 610.1 sec

Maximum memory used throughout the entire LEANSCF-calculation: 655.0 MB
------------------------------------------------------------------------------
                           ORCA ORBITAL LOCALIZATION
------------------------------------------------------------------------------

Input orbitals are from                  ... 15h_pet3_Compound_3.gbw
Output orbitals are to                   ... 15h_pet3_Compound_3.loc
Max. number of iterations                ... 128
Localizations seeded randomly            ... on
Convergence tolerance                    ... 1.000e-06
Threshold for strong local MOs           ... 9.500e-01
Threshold for bond MOs                   ... 8.500e-01
Operator                                 ... 0
Orbital range for localization           ... 16 to 75
Localization criterion                   ... NEW-BOYS
Doing the dipole integrals               ... o.k.
Initial value of the localization sum :  2329.072493
ITERATION   0 : L= 2571.4774868250 DL=  2.42e+02 (AVERGE_DL)=    0.3700702286 
ITERATION   1 : L= 2646.3681194233 DL=  7.49e+01 (AVERGE_DL)=    0.2056966015 
ITERATION   2 : L= 2656.2042400888 DL=  9.84e+00 (AVERGE_DL)=    0.0745461623 
ITERATION   3 : L= 2656.3775705211 DL=  1.73e-01 (AVERGE_DL)=    0.0098957970 
ITERATION   4 : L= 2656.3869291304 DL=  9.36e-03 (AVERGE_DL)=    0.0022994238 
ITERATION   5 : L= 2656.3893801434 DL=  2.45e-03 (AVERGE_DL)=    0.0011767553 
ITERATION   6 : L= 2656.3911524209 DL=  1.77e-03 (AVERGE_DL)=    0.0010006432 
ITERATION   7 : L= 2656.3926074641 DL=  1.46e-03 (AVERGE_DL)=    0.0009066743 
ITERATION   8 : L= 2656.3938295216 DL=  1.22e-03 (AVERGE_DL)=    0.0008309200 
ITERATION   9 : L= 2656.3948648424 DL=  1.04e-03 (AVERGE_DL)=    0.0007648052 
ITERATION  10 : L= 2656.3957495632 DL=  8.85e-04 (AVERGE_DL)=    0.0007069952 
ITERATION  11 : L= 2656.3965134507 DL=  7.64e-04 (AVERGE_DL)=    0.0006569436 
ITERATION  12 : L= 2656.3971806438 DL=  6.67e-04 (AVERGE_DL)=    0.0006139587 
ITERATION  13 : L= 2656.3977702390 DL=  5.90e-04 (AVERGE_DL)=    0.0005771522 
ITERATION  14 : L= 2656.3982970678 DL=  5.27e-04 (AVERGE_DL)=    0.0005455670 
ITERATION  15 : L= 2656.3987725258 DL=  4.75e-04 (AVERGE_DL)=    0.0005182860 
ITERATION  16 : L= 2656.3992053040 DL=  4.33e-04 (AVERGE_DL)=    0.0004944770 
ITERATION  17 : L= 2656.3996020314 DL=  3.97e-04 (AVERGE_DL)=    0.0004734340 
ITERATION  18 : L= 2656.3999677017 DL=  3.66e-04 (AVERGE_DL)=    0.0004545255 
ITERATION  19 : L= 2656.4003061388 DL=  3.38e-04 (AVERGE_DL)=    0.0004372727 
ITERATION  20 : L= 2656.4006201888 DL=  3.14e-04 (AVERGE_DL)=    0.0004212236 
ITERATION  21 : L= 2656.4009119874 DL=  2.92e-04 (AVERGE_DL)=    0.0004060271 
ITERATION  22 : L= 2656.4011831300 DL=  2.71e-04 (AVERGE_DL)=    0.0003913922 
ITERATION  23 : L= 2656.4014348035 DL=  2.52e-04 (AVERGE_DL)=    0.0003770788 
ITERATION  24 : L= 2656.4016679264 DL=  2.33e-04 (AVERGE_DL)=    0.0003629158 
ITERATION  25 : L= 2656.4018832134 DL=  2.15e-04 (AVERGE_DL)=    0.0003487565 
ITERATION  26 : L= 2656.4020812645 DL=  1.98e-04 (AVERGE_DL)=    0.0003345046 
ITERATION  27 : L= 2656.4022626391 DL=  1.81e-04 (AVERGE_DL)=    0.0003201117 
ITERATION  28 : L= 2656.4024278946 DL=  1.65e-04 (AVERGE_DL)=    0.0003055564 
ITERATION  29 : L= 2656.4025776327 DL=  1.50e-04 (AVERGE_DL)=    0.0002908569 
ITERATION  30 : L= 2656.4027125091 DL=  1.35e-04 (AVERGE_DL)=    0.0002760460 
ITERATION  31 : L= 2656.4028332565 DL=  1.21e-04 (AVERGE_DL)=    0.0002611875 
ITERATION  32 : L= 2656.4029406749 DL=  1.07e-04 (AVERGE_DL)=    0.0002463500 
ITERATION  33 : L= 2656.4030356333 DL=  9.50e-05 (AVERGE_DL)=    0.0002316221 
ITERATION  34 : L= 2656.4031190475 DL=  8.34e-05 (AVERGE_DL)=    0.0002170867 
ITERATION  35 : L= 2656.4031918648 DL=  7.28e-05 (AVERGE_DL)=    0.0002028293 
ITERATION  36 : L= 2656.4032550548 DL=  6.32e-05 (AVERGE_DL)=    0.0001889459 
ITERATION  37 : L= 2656.4033095621 DL=  5.45e-05 (AVERGE_DL)=    0.0001754853 
ITERATION  38 : L= 2656.4033563227 DL=  4.68e-05 (AVERGE_DL)=    0.0001625375 
ITERATION  39 : L= 2656.4033962290 DL=  3.99e-05 (AVERGE_DL)=    0.0001501530 
ITERATION  40 : L= 2656.4034301113 DL=  3.39e-05 (AVERGE_DL)=    0.0001383565 
ITERATION  41 : L= 2656.4034587406 DL=  2.86e-05 (AVERGE_DL)=    0.0001271800 
ITERATION  42 : L= 2656.4034828266 DL=  2.41e-05 (AVERGE_DL)=    0.0001166529 
ITERATION  43 : L= 2656.4035030096 DL=  2.02e-05 (AVERGE_DL)=    0.0001067841 
ITERATION  44 : L= 2656.4035198550 DL=  1.68e-05 (AVERGE_DL)=    0.0000975561 
ITERATION  45 : L= 2656.4035338677 DL=  1.40e-05 (AVERGE_DL)=    0.0000889761 
ITERATION  46 : L= 2656.4035454844 DL=  1.16e-05 (AVERGE_DL)=    0.0000810132 
ITERATION  47 : L= 2656.4035550905 DL=  9.61e-06 (AVERGE_DL)=    0.0000736691 
ITERATION  48 : L= 2656.4035630095 DL=  7.92e-06 (AVERGE_DL)=    0.0000668882 
ITERATION  49 : L= 2656.4035695230 DL=  6.51e-06 (AVERGE_DL)=    0.0000606627 
ITERATION  50 : L= 2656.4035748671 DL=  5.34e-06 (AVERGE_DL)=    0.0000549475 
ITERATION  51 : L= 2656.4035792437 DL=  4.38e-06 (AVERGE_DL)=    0.0000497263 
ITERATION  52 : L= 2656.4035828202 DL=  3.58e-06 (AVERGE_DL)=    0.0000449509 
ITERATION  53 : L= 2656.4035857392 DL=  2.92e-06 (AVERGE_DL)=    0.0000406102 
ITERATION  54 : L= 2656.4035881183 DL=  2.38e-06 (AVERGE_DL)=    0.0000366621 
ITERATION  55 : L= 2656.4035900527 DL=  1.93e-06 (AVERGE_DL)=    0.0000330586 
ITERATION  56 : L= 2656.4035916256 DL=  1.57e-06 (AVERGE_DL)=    0.0000298097 
ITERATION  57 : L= 2656.4035929034 DL=  1.28e-06 (AVERGE_DL)=    0.0000268694 
ITERATION  58 : L= 2656.4035939381 DL=  1.03e-06 (AVERGE_DL)=    0.0000241772 
ITERATION  59 : L= 2656.4035947762 DL=  8.38e-07 (AVERGE_DL)=    0.0000217610 
LOCALIZATION SUM CONVERGED


--------------------------------------------------------------------------------
                    LOCALIZED MOLECULAR ORBITAL COMPOSITIONS
--------------------------------------------------------------------------------

The Mulliken populations for each LMO on each atom are computed
The LMO`s will be ordered according to atom index and type
  (A) Strongly localized MO`s have populations of >=0.950 on one atom
  (B) Two center bond orbitals have populations of >=0.850 on two atoms
  (C) Other MO`s are considered to be `delocalized`

FOUND  -  11 strongly local MO`s
       -  49 two center bond MO`s
       -   0 significantly delocalized MO`s

Rather strongly localized orbitals:
MO  26:   2P  -   1.000434
MO  25:   2P  -   1.000276
MO  24:   2P  -   1.000342
MO  23:   1P  -   1.000404
MO  22:   1P  -   1.000296
MO  21:   1P  -   1.000346
MO  20:   0Ru -   0.950686
MO  19:   0Ru -   0.971541
MO  18:   0Ru -   0.957590
MO  17:   0Ru -   0.963538
MO  16:   0Ru -   0.962404
Bond-like localized orbitals:
MO  75:  48H  -   0.490752  and  12C  -   0.515092
MO  74:  47H  -   0.497307  and  12C  -   0.502081
MO  73:  46H  -   0.485944  and  43C  -   0.523703
MO  72:  45H  -   0.492494  and  43C  -   0.523141
MO  71:  44H  -   0.496022  and  43C  -   0.525594
MO  70:  43C  -   0.534388  and  12C  -   0.513731
MO  69:  42H  -   0.497241  and  10C  -   0.502770
MO  68:  41H  -   0.524688  and  10C  -   0.491327
MO  67:  40H  -   0.473285  and  37C  -   0.547240
MO  66:  39H  -   0.492296  and  37C  -   0.514598
MO  65:  38H  -   0.492435  and  37C  -   0.525988
MO  64:  37C  -   0.524440  and  10C  -   0.528186
MO  63:  36H  -   0.497595  and  11C  -   0.501194
MO  62:  35H  -   0.493914  and  11C  -   0.510730
MO  61:  34H  -   0.493856  and  31C  -   0.520771
MO  60:  33H  -   0.482746  and  31C  -   0.526460
MO  59:  32H  -   0.494042  and  31C  -   0.524023
MO  58:  31C  -   0.533776  and  11C  -   0.517288
MO  57:  30H  -   0.508495  and   9C  -   0.504018
MO  56:  29H  -   0.486371  and   9C  -   0.514655
MO  55:  28H  -   0.481586  and  25C  -   0.535206
MO  54:  27H  -   0.487677  and  25C  -   0.529135
MO  53:  26H  -   0.488248  and  25C  -   0.519505
MO  52:  25C  -   0.528346  and   9C  -   0.521884
MO  51:  24H  -   0.499133  and   3C  -   0.504195
MO  50:  23H  -   0.489194  and   3C  -   0.510776
MO  49:  22H  -   0.483030  and  19C  -   0.525499
MO  48:  21H  -   0.495458  and  19C  -   0.520080
MO  47:  20H  -   0.494960  and  19C  -   0.522759
MO  46:  19C  -   0.536424  and   3C  -   0.517582
MO  45:  18H  -   0.501556  and   8C  -   0.498706
MO  44:  17H  -   0.484555  and   8C  -   0.518602
MO  43:  16H  -   0.496996  and  13C  -   0.525721
MO  42:  15H  -   0.484606  and  13C  -   0.525889
MO  41:  14H  -   0.490503  and  13C  -   0.524470
MO  40:  13C  -   0.531676  and   8C  -   0.517004
MO  39:  12C  -   0.588831  and   2P  -   0.462032
MO  38:  11C  -   0.583034  and   2P  -   0.469526
MO  37:  10C  -   0.566597  and   2P  -   0.485708
MO  36:   9C  -   0.580003  and   1P  -   0.473988
MO  35:   8C  -   0.576808  and   1P  -   0.478631
MO  34:   7H  -   0.527672  and   0Ru -   0.335495
MO  33:   6H  -   0.479463  and   0Ru -   0.458708
MO  32:   5H  -   0.418213  and   4H  -   0.441730
MO  31:   3C  -   0.582419  and   1P  -   0.468549
MO  30:   2P  -   0.782951  and   0Ru -   0.231740
MO  29:   1P  -   0.030843  and   0Ru -   0.898846
MO  28:   1P  -   0.808074  and   0Ru -   0.206437
MO  27:   1P  -   0.014709  and   0Ru -   0.941591
Localized MO's were stored in: 15h_pet3_Compound_3.loc

-------------------------   --------------------
FINAL SINGLE POINT ENERGY     -1255.872143358096
-------------------------   --------------------


------------------------------------------------------------------------------
                              ORCA PROPERTY CALCULATIONS
------------------------------------------------------------------------------

GBWName                                 ... 15h_pet3_Compound_3.gbw
Number of atoms                         ...     49
Number of basis functions               ...   1916
Max core memory                         ...   4096 MB

Electric properties:
Dipole moment                           ... YES
Quadrupole moment                       ...  NO
Static polarizability (Dipole/Dipole)   ...  NO
Static polarizability (Dipole/Quad.)    ...  NO
Static polarizability (Quad./Quad.)     ...  NO
Static polarizability (Velocity)        ...  NO
Static hyperpolarizability              ...  NO

Atomic electric properties:
Dipole moment                           ...  NO
Quadrupole moment                       ...  NO
Static polarizability                   ...  NO

Choice of electric origin               ... Center of mass
Position of electric origin             ...     1.936009     4.549749    -0.214232

General magnetic properties:
Magnetizability                         ...  NO

EPR properties:
g-Tensor (aka g-matrix)                 ...  NO
Zero-Field splitting spin-orbit         ...  NO
Zero-field splitting spin-spin          ...  NO
Hyperfine couplings                     ...  NO (   0 nuclei)
Quadrupole couplings                    ...  NO (   0 nuclei)
Contact density                         ...  NO (   0 nuclei)

NMR properties:
Chemical shifts                         ...  NO (   0 nuclei)
Spin-rotation constants                 ...  NO (   0 nuclei)
Spin-spin couplings                     ...  NO (   0 nuclei,    0 pairs)

Choice of magnetic origin               ... GIAO
Position of magnetic origin             ...     0.000000     0.000000     0.000000

Properties with geometric perturbations:
SCF Hessian                             ...  NO
IR spectrum                             ...  NO
VCD spectrum                            ...  NO
X-ray spectroscopy properties:
SCF XES/XAS/RIXS spectra                ...  NO

SCF SOC stabilization energy            ...  NO
Diagonal Born-Oppenheimer correction    ...  NO

-------------
DIPOLE MOMENT
-------------

Method             : SCF
Type of density    : Electron Density
Multiplicity       :   1
Irrep              :   0
Energy             : -1255.8721433580960820 Eh
Basis              : AO
                                X                 Y                 Z
Electronic contribution:     28.024889613     -19.055924592       9.837316920
Nuclear contribution   :    -27.935364475      18.908474579     -10.007396599
                        -----------------------------------------
Total Dipole Moment    :      0.089525138      -0.147450013      -0.170079679
                        -----------------------------------------
Magnitude (a.u.)       :      0.242246474
Magnitude (Debye)      :      0.615741603



--------------------
Rotational spectrum 
--------------------
 
Rotational constants in cm-1:             0.022177             0.005924             0.005762 
Rotational constants in MHz :           664.848428           177.602369           172.748898 

Dipole components along the rotational axes: 
x,y,z [a.u.] :     0.054245     0.177282     0.155923 
x,y,z [Debye]:     0.137879     0.450614     0.396326 

 

Dipole moment calculation done in   0.0 sec 

Maximum memory used throughout the entire PROP-calculation: 584.7 MB

Timings for individual modules:

Sum of individual times          ...      629.067 sec (=  10.484 min)
Startup calculation              ...       15.773 sec (=   0.263 min)   2.5 %
SCF iterations                   ...      611.808 sec (=  10.197 min)  97.3 %
Property calculations            ...        0.271 sec (=   0.005 min)   0.0 %
Orbital localization             ...        1.215 sec (=   0.020 min)   0.2 %

--------------------------------
SUGGESTED CITATIONS FOR THIS RUN
--------------------------------

Below you find a list of papers that are relevant to this ORCA run
We neither can nor want to force you to cite these papers, but we appreciate if you do
You receive ORCA, which is the product of decades of hard work by many enthusiastic individuals, for free
The only thing we kindly ask in return is that you cite our papers,
We deeply appreciate it, if you show your appreciation for ORCA by not just citing the generic ORCA reference.

Please note that relegating all ORCA citations to the supporting information does *not* help us.
SI sections are not indexed - citations you put there will not count into any citation statistics
But we need these citations in order to attract the funding resources that allow us to do what we are doing

Therefore, if you are a happy ORCA user, please consider citing a few of the papers listed below in the main body of your paper

In addition to the list printed below, the program has created the file 15h_pet3.bibtex that contains the list in bibtex format
You can import this file easily into all common literature databanks and citation aid programs

It goes without saying that in many instances, there are alternative algorithms to achieve similar
results as the ones you have gotten from ORCA. It is, of course, also the case that in some instances
ORCA just re-implements algorithms worked out by others. We are fully aware of that and we are also
fully appreciative of our colleagues work. Hence this citation list should not be read as indicating
that the listed papers, which are focused on our own work, are the only ones worth citing. It simply
meant to make it easier for users to cite ORCA specific papers. It is not a substitute for doing your
own literature research and citing the relevant literature in a scientifically appropriate manner.

List of essential papers. We consider these as the minimum necessary citations

  1. Neese, F.
     Software update: the ORCA program system, version 6.0
     WIRES Comput. Molec. Sci. 2025 15(1), e70019
     doi.org/10.1002/wcms.70019

List of papers to cite with high priority. The work reported in these papers was absolutely
necessary for this run to complete.
Our perspective: the developers of density functionals and basis sets usually get cited in chemistry papers
Good! But without the algorithms to do something with them, the functionals or basis sets would not do anything.
Hence, in our opinion, the algorithm design and method developments papers are equally worthy of getting cited

  1. Neese, F.
     An improvement of the resolution of the identity approximation for the formation of the Coulomb matrix
     J. Comp. Chem. 2003 24(14), 1740-1747
     doi.org/10.1002/jcc.10318
  2. Neese, F.
     The SHARK Integral Generation and Digestion System
     J. Comp. Chem. 2022 44(3), 381
     doi.org/10.1002/jcc.26942

List of suggested additional citations. These are papers that are important in the 'surrounding' of 
of this run, or papers that preceded the highly important papers. If you like your results we are grateful for a citation.

  1. Neese, F.
     The ORCA program system
     WIRES Comput. Molec. Sci. 2012 2(1), 73-78
     doi.org/10.1002/wcms.81
  2. Neese, F.
     Software update: the ORCA program system, version 4.0
     WIRES Comput. Molec. Sci. 2018 8(1), 1-6
     doi.org/10.1002/wcms.1327
  3. Neese, F.; Wennmohs, F.; Becker, U.; Riplinger, C.
     The ORCA quantum chemistry program package
     J. Chem. Phys. 2020 152(22), 224108
     doi.org/10.1063/5.0004608
  4. Neese, F.
     Software update: The ORCA program system—Version 5.0
     WIRES Comput. Molec. Sci. 2022 12(1), e1606
     doi.org/10.1002/wcms.1606

List of optional additional citations

  1. Neese, F.
     Approximate second-order SCF convergence for spin unrestricted wavefunctions
     Chem. Phys. Lett. 2000 325(1-3), 93-98
     doi.org/10.1016/s0009-2614(00)00662-x
                             ****ORCA TERMINATED NORMALLY****
TOTAL RUN TIME: 0 days 0 hours 14 minutes 54 seconds 484 msec
