
                                 *****************
                                 * O   R   C   A *
                                 *****************

                                            #,                                       
                                            ###                                      
                                            ####                                     
                                            #####                                    
                                            ######                                   
                                           ########,                                 
                                     ,,################,,,,,                         
                               ,,#################################,,                 
                          ,,##########################################,,             
                       ,#########################################, ''#####,          
                    ,#############################################,,   '####,        
                  ,##################################################,,,,####,       
                ,###########''''           ''''###############################       
              ,#####''   ,,,,##########,,,,          '''####'''          '####       
            ,##' ,,,,###########################,,,                        '##       
           ' ,,###''''                  '''############,,,                           
         ,,##''                                '''############,,,,        ,,,,,,###''
      ,#''                                            '''#######################'''  
     '                                                          ''''####''''         
             ,#######,   #######,   ,#######,      ##                                
            ,#'     '#,  ##    ##  ,#'     '#,    #''#        ,####,    ,#,          
            ##       ##  ##   ,#'  ##            #'  '#       #'       ,# #          
            ##       ##  #######   ##           ,######,      #####,      #          
            '#,     ,#'  ##    ##  '#,     ,#' ,#      #,     #,   #      #          
             '#######'   ##     ##  '#######'  #'      '#     '####' #    #          



                #########################################################
                #                        -***-                          #
                #          Department of theory and spectroscopy        #
                #                                                       #
                #                      Frank Neese                      #
                #                                                       #
                #     Directorship, Architecture, Infrastructure        #
                #                    SHARK, DRIVERS                     #
                #        Core code/Algorithms in most modules           #
                #                                                       #
                #        Max Planck Institute fuer Kohlenforschung      #
                #                Kaiser Wilhelm Platz 1                 #
                #                 D-45470 Muelheim/Ruhr                 #
                #                      Germany                          #
                #                                                       #
                #                  All rights reserved                  #
                #                        -***-                          #
                #########################################################


                         Program Version 6.1.1  -  RELEASE   -
                                (GIT: $487d211c$)
                          ($2025-11-21 10:33:24 +0100$)


 With contributions from (in alphabetic order):
[Max-Planck-Institut fuer Kohlenforschung]                               
  Daniel Aravena         : Magnetic Suceptibility                        
  Michael Atanasov       : Ab Initio Ligand Field Theory (pilot matlab implementation)
  Alexander A. Auer      : GIAO ZORA, VPT2 properties, NMR spectrum      
  Ute Becker             : All parallelization in ORCA, NUMFREQ, NUMCALC 
  Giovanni Bistoni       : ED, misc. LED, open-shell LED, HFLD           
  Dmytro Bykov           : pre 5.0 version of the SCF Hessian            
  Marcos Casanova-Páez   : Triplet and SCS-CIS(D). UHF-(DLPNO)-IP/EA/STEOM-CCSD. UHF-CVS-IP/STEOM-CCSD   
  Vijay G. Chilkuri      : MRCI spin determinant printing, contributions to CSF-ICE 
  Pauline Colinet        : FMM embedding                                 
  Dipayan Datta          : RHF DLPNO-CCSD density                        
  Achintya Kumar Dutta   : EOM-CC, STEOM-CC                              
  Nicolas Foglia         : Exact transition moments, OPA infrastructure, MCD improvements    
  Dmitry Ganyushin       : Spin-Orbit,Spin-Spin,Magnetic field MRCI      
  Miquel Garcia-Rates    : C-PCM and meta-GGA Hessian, CCSD/C-PCM, Gaussian charge scheme 
  Tiago L. C. Gouveia    : GS-ROHF, GS-ROCIS                             
  Yang Guo               : DLPNO-NEVPT2, F12-NEVPT2, CIM, IAO-localization        
  Andreas Hansen         : Spin unrestricted coupled pair/coupled cluster methods 
  Ingolf Harden          : AUTO-CI MPn and infrastructure                
  Benjamin Helmich-Paris : MC-RPA, TRAH-(SCF,CASSCF), AVAS, COSX integrals, SCF dyn. polar., MC-PDFT, srDFT 
  Lee Huntington         : MR-EOM, pCC                                   
  Robert Izsak           : Overlap fitted RIJCOSX, COSX-SCS-MP3, EOM     
  Riya Kayal             : Wick's Theorem for AUTO-CI, AUTO-CI UHF-CCSDT 
  Emily Kempfer          : AUTO-CI RHF CISDT and CCSDT, approximate NEVPT4
  Christian Kollmar      : KDIIS, OOCD, Brueckner-CCSD(T), CCSD density, CASPT2, CASPT2-K, improved NEVPT2 
  Axel Koslowski         : Symmetry handling                             
  Simone Kossmann        : meta-GGA functionals, TD-DFT gradient, OOMP2, (MP2 Hessian; deprecated post 5.0) 
  Lucas Lang             : DCDCAS, Hyperfine gauge corrections, ICE-SOC+SSC
  Marvin Lechner         : AUTO-CI (C++ implementation), FIC-MRCC        
  Spencer Leger          : CASSCF response                               
  Dagmar Lenk            : GEPOL surface, SMD, ORCA-2-JSON               
  Dimitrios Liakos       : Extrapolation schemes; Compound Job, Property file
  Dimitrios Manganas     : Further ROCIS development; embedding schemes. LFT, Crystal Embedding 
  Dimitrios Pantazis     : SARC Basis sets                               
  Anastasios Papadopoulos: AUTO-CI, single reference methods and gradients 
  Taras Petrenko         : pre 6.0 DFT Hessian and TD-DFT gradient,  ECA, NRVS 
  Petra Pikulova         : Analytic Raman intensities                    
  Peter Pinski           : DLPNO-MP2, DLPNO-MP2 Gradient                 
  Shashank Vittal Rao    : ES-AILFT, MagRelax                            
  Christoph Reimann      : Effective Core Potentials                     
  Marius Retegan         : Local ZFS, SOC                                
  Christoph Riplinger    : Optimizer, TS searches, QM/MM, DLPNO-CCSD(T), (RO)-DLPNO pert. Triples 
  Michael Roemelt        : Original ROCIS implementation, recursive CI coupling coefficients
  Masaaki Saitow         : Open-shell DLPNO-CCSD energy and density      
  Barbara Sandhoefer     : DKH picture change effects                    
  Yorick L. A. Schmerwitz: GMF and freeze-and-release deltaSCF, NEB S-IDPP initial path                    
  Kantharuban Sivalingam : CASSCF convergence/infrastructure, NEVPT2, NEVPT3, NEVPT4(SD), FIC-MRCI and CEPA variants
  Bernardo de Souza      : ESD, SOC TD-DFT                               
  Georgi L. Stoychev     : AutoAux, RI-MP2 NMR, DLPNO-MP2 response, X2C  
  Van Anh Tran           : RI-MP2 g-tensors                              
  Willem Van den Heuvel  : Paramagnetic NMR                              
  Zikuan Wang            : NOTCH, Electric field optimization            
  Frank Wennmohs         : Technical directorship and infrastructure     
  Hang Xu                : AUTO-CI-Response properties                   
                                                                         
[FACCTs GmbH]                                                            
  Markus Bursch, Nicolas Foglia, Miquel Garcia-Rates, Ingolf Harden, Hagen Neugebauer, Anastasios Papadopoulos, 
  Christoph Riplinger, Bernardo de Souza, Georgi L. Stoychev                                                    
                                                                 
  APM, various basis sets, CI-OPT, improved COSX, DLPNO-Multilevel,           
  DOCKER, DRACO, updates on ESD, Fragmentator, GOAT, IRC, LR-CPCM, L-BFGS, MBIS, meta-GGA TD-DFT gradient, ML-optimized integration grids, 
  MM, NACMEs, nearIR, NEB, NEB-TS, NL-DFT gradient (VV10), 2- and 3-layer-ONIOM, interface openCOSMO-RS, QMMM,   
  Crystal-QMMM, RESP, rigid body optimization, SF, symmetry and pop. for TD-DFT, various functionals, SOLVATOR                                   
                                                                         
[Other institutions]                                                     
  V. Asgeirsson          : NEB                                           
  Christoph Bannwarth    : sTDA-DFT, sTD-DFT, PBEh-3c, B97-3c, D3        
  Giovanni Bistoni       : ETS/NOCV, ADLD/ADEX, COVALED                  
  Martin Brehm           : Molecular dynamics                            
  Ronald Cardenas        : ETS/NOCV                                      
  Martina Colucci        : COVALED                                       
  Sebastian Ehlert       : rSCAN, r2SCAN, r2SCAN-3c, D4, dhf basis sets  
  Marvin Friede          : D4 for Fr, Ra, Ac-Lr                          
  Lars Goerigk           : TD-DFT with DH, B97 family of functionals     
  Stefan Grimme          : VdW corrections, initial TS optimization, DFT functionals, gCP, sTDA/sTD-DF 
  Waldemar Hujo          : DFT-NL                                        
  H. Jonsson             : NEB                                           
  Holger Kruse           : gCP                                           
  Marcel Mueller         : wB97X-3c, vDZP basis set                      
  Hagen Neugebauer       : wr2SCAN, Native XTB                           
  Gianluca Regni         : ADLD/ADEX                                     
  Tobias Risthaus        : pre 6.0 range-separated hybrid DFT and stability analysis
  Lukas Wittmann         : regularized MP2, r2SCAN double-hybrids, wr2SCAN        
                                                                         
We gratefully acknowledge several colleagues who have allowed us to      
interface, adapt or use parts of their codes:                            
  Ed Valeev, F. Pavosevic, A. Kumar             : LibInt (2-el integral package), F12 methods 
  Garnet Chan, S. Sharma, J. Yang, R. Olivares  : DMRG                   
  Ulf Ekstrom                                   : XCFun DFT Library      
  Mihaly Kallay                                 : mrcc  (arbitrary order and MRCC methods)
  Frank Weinhold                                : gennbo (NPA and NBO analysis)           
  Simon Mueller                                 : openCOSMO-RS                            
  Christopher J. Cramer and Donald G. Truhlar   : smd solvation model                     
  S Lehtola, MJT Oliveira, MAL Marques          : LibXC Library                           
  Liviu Ungur et al                             : ANISO software                          


 Your calculation uses the libint2 library for the computation of 2-el integrals
 For citations please refer to: http://libint.valeyev.net

 Your ORCA version has been built with support for libXC version: 7.0.0
 For citations please refer to: https://libxc.gitlab.io

 This ORCA versions uses:
   CBLAS   interface :  Fast vector & matrix operations
   LAPACKE interface :  Fast linear algebra routines
   SCALAPACK package :  Parallel linear algebra routines
   Shared memory     :  Shared parallel matrices
   BLAS/LAPACK       :  OpenBLAS 0.3.29  USE64BITINT DYNAMIC_ARCH NO_AFFINITY Cooperlake SINGLE_THREADED
        Core in use  :  Cooperlake
   Copyright (c) 2011-2014, The OpenBLAS Project


  ***********************************
  * Starting time: Wed Jul 22 14:03:43 2026
  * Host name:     c1-5
  * Process ID:    2811976
  * Working dir.:  /cluster/projects/nn14654k/ylvaos/TPhP_bsse/orca/opt1_bp86_pet3
  ***********************************

================================================================================



################################################################################


                                COMPOUND JOB MainJOB 
Basename: 1b_pet3_Compound_0

################################################################################

================================================================================
                                       INPUT FILE
================================================================================
NAME = 1b_pet3_Compound_0.inp
|  1> #
|  2>  
|  3> #
|  4>  
|  5> 
|  6>                          ****END OF INPUT****
================================================================================
================================================================================



################################################################################


                                COMPOUND JOB  1 
Basename: 1b_pet3_Compound_1
NOTE: please remember that MaxCore and PAL settings will be ignored.

################################################################################

================================================================================
                                       INPUT FILE
================================================================================
NAME = 1b_pet3_Compound_1.inp
|  1>   ! BP86 def2-SVP VeryTightSCF defgrid3 NOAUTOSTART
|  2>   %loc
|  3>     LocMet NEWBOYS
|  4>     Occ true
|  5>   end
|  6>   %id "def2-svp"
|  7>   * xyzfile 0 1 opt1_pet3/1b_pet3_opt.xyz
|  8> 
|  9>                          ****END OF INPUT****
================================================================================


***************************************
The coordinates will be read from file: opt1_pet3/1b_pet3_opt.xyz
***************************************


Warning: RI is on but no J-basis has been assigned. Assigning Def2/J (nothing to worry about!)
================================================================================

cite the ECPs for Ru [Def2-ECP] as follows:
Ce-Yb(ecp-28): M. Dolg, H. Stoll, H.Preuss, J. Chem. Phys., 1989, 90, 1730-1734.
Y-Cd(ecp-28), Hf-Hg(ecp-46): D. Andrae,U. Haeussermann, M. Dolg, H. Stoll, H. Preuss, Theor. Chim. Acta, 1990, 77, 123-141.
In-Sb(ecp-28), Tl-Bi(ecp-46): B. Metz, H. Stoll, M. Dolg, J. Chem. Phys., 2000, 113, 2563-2569.
Te-Xe(ecp-28), Po-Rn(ecp-46): K. A. Peterson, D. Figgen, E. Goll, H. Stoll, M. Dolg, J. Chem. Phys., 2003, 119, 11113-11123.
Rb(ecp-28), Cs(ecp-46): T. Leininger, A. Nicklass, W. Kuechle, H. Stoll, M. Dolg, A. Bergner, Chem. Phys. Lett., 1996, 255, 274-280.
Sr(ecp-28), Ba(ecp-46): M. Kaupp, P. V. Schleyer, H. Stoll and H. Preuss, J. Chem. Phys., 1991, 94, 1360-1366.
La(ecp-46): M. Dolg, H. Stoll, A. Savin, H. Preuss, Theor. Chim. Acta, 1989, 75, 173-194.
Lu(ecp-28): X. Cao, M. Dolg, J. Chem. Phys., 2001, 115, 7348-7355.

ECP parameters for Ru [Def2-ECP] have been obtained from:
TURBOMOLE (7.0.2)

----- Orbital basis set information -----
Your calculation utilizes the basis: def2-SVP
   F. Weigend and R. Ahlrichs, Phys. Chem. Chem. Phys. 7, 3297 (2005).

----- AuxJ basis set information -----
Your calculation utilizes the auxiliary basis: def2/J
   H-Rn: F. Weigend, Phys. Chem. Chem. Phys. 8, 1057 (2006).
   Fr-Lr: K. Eichkorn, F. Weigend, O. Treutler, R. Ahlrichs; Theor. Chem. Acc. 97, 119 (1997).

================================================================================
                                        WARNINGS
                       Please study these warnings very carefully!
================================================================================



                       ****************************
                       * Single Point Calculation *
                       ****************************

---------------------------------
CARTESIAN COORDINATES (ANGSTROEM)
---------------------------------
  Ru     0.654909    1.383103    0.601093
  P      0.779471    3.353621   -0.542332
  P     -1.520001    0.752411    1.162849
  P      1.758755   -0.478855   -0.208859
  C     -1.655642   -0.663382    2.361644
  H      2.172736    1.848447    0.878006
  H      1.001863    0.571254    1.976975
  H      0.399892    2.498764    1.756144
  H     -0.006961    1.155707   -0.842929
  C      1.932971    4.597772    0.186153
  C     -0.781068    4.338424   -0.730178
  C     -2.482641    2.080874    2.021468
  C     -2.710553    0.315295   -0.189268
  C      1.354468    3.294033   -2.302250
  C      1.031354   -2.091629    0.345899
  C      1.863880   -0.692263   -2.054349
  C      3.496945   -0.704096    0.379308
  C     -3.841278    1.757269    2.640347
  H     -4.547908    1.332938    1.909667
  H     -4.302065    2.674335    3.042523
  H     -3.751031    1.048214    3.477189
  H     -2.585570    2.882640    1.274225
  H     -1.793963    2.474578    2.785162
  C     -2.918807   -1.525611    2.360071
  H     -3.035762   -2.071637    1.411344
  H     -3.836816   -0.943320    2.519017
  H     -2.865086   -2.279504    3.162730
  H     -1.488699   -0.204089    3.351583
  H     -0.774156   -1.293567    2.191224
  C     -2.242138   -0.785933   -1.136786
  H     -2.958121   -0.924663   -1.962800
  H     -2.143169   -1.755800   -0.624089
  H     -1.264322   -0.532349   -1.572200
  H     -2.845632    1.254186   -0.753481
  H     -3.692889    0.060774    0.239244
  C      3.015674   -1.501789   -2.652811
  H      2.909316   -1.563063   -3.748397
  H      3.059112   -2.530482   -2.270174
  H      3.989452   -1.032562   -2.448674
  H      1.867004    0.323687   -2.472871
  H      0.890540   -1.122602   -2.348251
  C      1.549460   -3.411506   -0.223503
  H      1.336345   -3.504936   -1.299408
  H      1.056897   -4.260088    0.279104
  H      2.634137   -3.536014   -0.080188
  H     -0.048170   -2.002003    0.154806
  H      1.144044   -2.074537    1.442681
  C      4.484907    0.404978    0.027326
  H      4.622853    0.508916   -1.060282
  H      5.473575    0.193256    0.465506
  H      4.135975    1.371708    0.417088
  H      3.869468   -1.676739    0.019153
  H      3.402734   -0.779739    1.475260
  C      2.821457    2.886555   -2.430391
  H      3.077495    2.623051   -3.469214
  H      3.044149    2.022717   -1.788789
  H      3.494367    3.701894   -2.121806
  H      1.179178    4.268382   -2.788460
  H      0.701335    2.563108   -2.806572
  C      2.094196    5.916738   -0.567984
  H      2.536135    5.768922   -1.565732
  H      2.760177    6.599190   -0.015516
  H      1.134553    6.438754   -0.706835
  H      2.899588    4.081373    0.291205
  H      1.581919    4.761195    1.216999
  C     -1.183562    5.089747    0.540685
  H     -2.231898    5.425278    0.488588
  H     -0.559975    5.983390    0.693975
  H     -1.072759    4.453593    1.430644
  H     -1.558443    3.610875   -1.016245
  H     -0.679743    5.041995   -1.573861

----------------------------
CARTESIAN COORDINATES (A.U.)
----------------------------
  NO LB      ZA    FRAG     MASS         X           Y           Z
   0 Ru   16.0000*   0   101.070    1.237599    2.613686    1.135900
   1 P    15.0000    0    30.974    1.472987    6.337426   -1.024860
   2 P    15.0000    0    30.974   -2.872386    1.421852    2.197466
   3 P    15.0000    0    30.974    3.323566   -0.904904   -0.394686
   4 C     6.0000    0    12.011   -3.128710   -1.253611    4.462860
   5 H     1.0000    0     1.008    4.105877    3.493058    1.659191
   6 H     1.0000    0     1.008    1.893247    1.079513    3.735941
   7 H     1.0000    0     1.008    0.755687    4.721980    3.318631
   8 H     1.0000    0     1.008   -0.013154    2.183969   -1.592906
   9 C     6.0000    0    12.011    3.652786    8.688531    0.351778
  10 C     6.0000    0    12.011   -1.476004    8.198434   -1.379836
  11 C     6.0000    0    12.011   -4.691512    3.932281    3.820022
  12 C     6.0000    0    12.011   -5.122202    0.595822   -0.357664
  13 C     6.0000    0    12.011    2.559573    6.224820   -4.350622
  14 C     6.0000    0    12.011    1.948977   -3.952607    0.653653
  15 C     6.0000    0    12.011    3.522222   -1.308188   -3.882157
  16 C     6.0000    0    12.011    6.608269   -1.330549    0.716788
  17 C     6.0000    0    12.011   -7.258963    3.320757    4.989532
  18 H     1.0000    0     1.008   -8.594300    2.518887    3.608747
  19 H     1.0000    0     1.008   -8.129724    5.053760    5.749536
  20 H     1.0000    0     1.008   -7.088420    1.980837    6.570935
  21 H     1.0000    0     1.008   -4.886018    5.447401    2.407935
  22 H     1.0000    0     1.008   -3.390099    4.676275    5.263194
  23 C     6.0000    0    12.011   -5.515747   -2.882987    4.459889
  24 H     1.0000    0     1.008   -5.736759   -3.914826    2.667055
  25 H     1.0000    0     1.008   -7.250531   -1.782617    4.760251
  26 H     1.0000    0     1.008   -5.414228   -4.307638    5.976693
  27 H     1.0000    0     1.008   -2.813233   -0.385672    6.333573
  28 H     1.0000    0     1.008   -1.462943   -2.444487    4.140813
  29 C     6.0000    0    12.011   -4.237027   -1.485199   -2.148215
  30 H     1.0000    0     1.008   -5.590039   -1.747360   -3.709154
  31 H     1.0000    0     1.008   -4.050003   -3.317981   -1.179358
  32 H     1.0000    0     1.008   -2.389222   -1.005994   -2.971028
  33 H     1.0000    0     1.008   -5.377465    2.370069   -1.423872
  34 H     1.0000    0     1.008   -6.978550    0.114846    0.452106
  35 C     6.0000    0    12.011    5.698799   -2.837971   -5.013086
  36 H     1.0000    0     1.008    5.497811   -2.953761   -7.083445
  37 H     1.0000    0     1.008    5.780884   -4.781918   -4.290006
  38 H     1.0000    0     1.008    7.538972   -1.951260   -4.627322
  39 H     1.0000    0     1.008    3.528126    0.611680   -4.673050
  40 H     1.0000    0     1.008    1.682876   -2.121411   -4.437552
  41 C     6.0000    0    12.011    2.928056   -6.446813   -0.422359
  42 H     1.0000    0     1.008    2.525326   -6.623370   -2.455525
  43 H     1.0000    0     1.008    1.997247   -8.050400    0.527430
  44 H     1.0000    0     1.008    4.977797   -6.682099   -0.151533
  45 H     1.0000    0     1.008   -0.091028   -3.783237    0.292542
  46 H     1.0000    0     1.008    2.161930   -3.920308    2.726272
  47 C     6.0000    0    12.011    8.475246    0.765298    0.051639
  48 H     1.0000    0     1.008    8.735926    0.961712   -2.003643
  49 H     1.0000    0     1.008   10.343558    0.365200    0.879678
  50 H     1.0000    0     1.008    7.815859    2.592153    0.788182
  51 H     1.0000    0     1.008    7.312235   -3.168577    0.036195
  52 H     1.0000    0     1.008    6.430235   -1.473494    2.787838
  53 C     6.0000    0    12.011    5.331781    5.454799   -4.592773
  54 H     1.0000    0     1.008    5.815622    4.956847   -6.555863
  55 H     1.0000    0     1.008    5.752607    3.822381   -3.380321
  56 H     1.0000    0     1.008    6.603398    6.995566   -4.009632
  57 H     1.0000    0     1.008    2.228324    8.066073   -5.269425
  58 H     1.0000    0     1.008    1.325331    4.843573   -5.303652
  59 C     6.0000    0    12.011    3.957458   11.181015   -1.073335
  60 H     1.0000    0     1.008    4.792601   10.901683   -2.958805
  61 H     1.0000    0     1.008    5.215980   12.470662   -0.029321
  62 H     1.0000    0     1.008    2.143994   12.167482   -1.335724
  63 H     1.0000    0     1.008    5.479427    7.712677    0.550297
  64 H     1.0000    0     1.008    2.989393    8.997355    2.299795
  65 C     6.0000    0    12.011   -2.236607    9.618227    1.021747
  66 H     1.0000    0     1.008   -4.217675   10.252289    0.923298
  67 H     1.0000    0     1.008   -1.058200   11.306969    1.311423
  68 H     1.0000    0     1.008   -2.027222    8.416071    2.703526
  69 H     1.0000    0     1.008   -2.945030    6.823565   -1.920425
  70 H     1.0000    0     1.008   -1.284528    9.527989   -2.974167
* core charge reduced due to ECP

--------------------------------
INTERNAL COORDINATES (ANGSTROEM)
--------------------------------
 Ru     0   0   0     0.000000000000     0.00000000     0.00000000
 P      1   0   0     2.281639681695     0.00000000     0.00000000
 P      1   2   0     2.333147677540   113.89169773     0.00000000
 P      1   2   3     2.311142968951   119.60942072   130.09160699
 C      3   1   2     1.860101896827   115.39757793   191.06299400
 H      1   2   3     1.611528631814    77.60262043   202.04422175
 H      1   2   3     1.634786644467   147.04312107   246.19120690
 H      1   2   3     1.626000391051    76.81933356   284.58089927
 H      1   2   3     1.604674510448    72.17765463    67.71441677
 C      2   1   3     1.846392369012   114.72912095   127.02590865
 C      2   1   3     1.854832919329   117.60426550     7.09237684
 C      3   1   2     1.851678982390   113.72361734   308.56276361
 C      3   1   2     1.853834606128   119.12936476    66.06930220
 C      2   1   3     1.852425488606   117.72832566   246.63535294
 C      4   1   2     1.854160322782   114.11264768   204.74034705
 C      4   1   2     1.860760250197   117.83718494   325.26260291
 C      4   1   2     1.848777531207   115.83051127    89.85697818
 C     12   3   1     1.527620106378   119.88384734   189.26605475
 H     18  12   3     1.101488415552   112.54580186   303.45957020
 H     18  12   3     1.102306773262   110.08126905   184.04604546
 H     18  12   3     1.100549382722   111.81441973    65.21750759
 H     12   3   1     1.100816738178   104.85557880    64.83295816
 H     12   3   1     1.101139799370   104.65332529   313.92566366
 C      5   3   1     1.529387980408   119.25350839   205.31289832
 H     24   5   3     1.100865652861   111.60846423    64.43004255
 H     24   5   3     1.098665588264   113.02735536   303.26184555
 H     24   5   3     1.102497792829   110.15235224   183.21733669
 H      5   3   1     1.103992305721   104.49019474    80.46764168
 H      5   3   1     1.096902016534   106.17390920   329.91117108
 C     13   3   1     1.526403761750   115.20047538    55.49230617
 H     30  13   3     1.101896545239   110.90174468   185.18485760
 H     30  13   3     1.101496138604   111.95506093    65.44334194
 H     30  13   3     1.100006789729   110.62080707   305.06164117
 H     13   3   1     1.103675510115   104.52924059   295.27803580
 H     13   3   1     1.101539344598   110.08811297   181.09350357
 C     16   4   1     1.529745229156   119.42184815   154.23713583
 H     36  16   4     1.102441054165   110.21582958   177.86314479
 H     36  16   4     1.098411035410   112.89814042    57.84923807
 H     36  16   4     1.100040593940   111.60361974   296.69592680
 H     16   4   1     1.098784365074   105.77663540    29.99106979
 H     16   4   1     1.104065668549   105.00555044   279.07080986
 C     15   4   1     1.527981185047   120.45297219   173.27239801
 H     42  15   4     1.100781190632   111.83269756   294.44505548
 H     42  15   4     1.102416685719   110.09107471   175.52946901
 H     42  15   4     1.101164961088   112.53027194    56.16572236
 H     15   4   1     1.099964591473   105.19861057    48.76345128
 H     15   4   1     1.102689015420   104.12386208   297.73572021
 C     17   4   1     1.526435662447   116.52821614   298.96727477
 H     48  17   4     1.101237564108   112.17200404   297.02547322
 H     48  17   4     1.101949040982   110.45095411   177.29318859
 H     48  17   4     1.099197693973   110.59693330    57.50646712
 H     17   4   1     1.102051503040   108.74548444   173.57936034
 H     17   4   1     1.102592334609   104.13725973    59.70460319
 C     14   2   1     1.527912130245   112.72336849   292.74044968
 H     54  14   2     1.101881552865   111.46558958   166.34880187
 H     54  14   2     1.098845305367   110.80960303    45.55259633
 H     54  14   2     1.101276983437   111.45181408   286.34781348
 H     14   2   1     1.102942568873   109.94184728   168.89156520
 H     14   2   1     1.102349041184   105.78745810    53.86266706
 C     10   2   1     1.527870254666   116.92842191   177.81478212
 H     60  10   2     1.101208669197   111.94305028   296.30216369
 H     60  10   2     1.102040526280   110.54346767   176.93526106
 H     60  10   2     1.101224827304   112.30252500    57.21935189
 H     10   2   1     1.100932269631   105.67007152    53.68085980
 H     10   2   1     1.101176039962   105.67524585   302.61796770
 C     11   2   1     1.530222317812   113.44528022    76.42095279
 H     66  11   2     1.101954584517   111.12887577   195.79975795
 H     66  11   2     1.100434779584   111.42980401    76.10600193
 H     66  11   2     1.099543029889   111.20046981   316.24453768
 H     11   2   1     1.102485434513   105.61301155   314.96261243
 H     11   2   1     1.103213284523   109.80261719   200.28233000

---------------------------
INTERNAL COORDINATES (A.U.)
---------------------------
 Ru     0   0   0     0.000000000000     0.00000000     0.00000000
 P      1   0   0     4.311674134691     0.00000000     0.00000000
 P      1   2   0     4.409010140545   113.89169773     0.00000000
 P      1   2   3     4.367427267655   119.60942072   130.09160699
 C      3   1   2     3.515083166190   115.39757793   191.06299400
 H      1   2   3     3.045347771101    77.60262043   202.04422175
 H      1   2   3     3.089299045436   147.04312107   246.19120690
 H      1   2   3     3.072695432735    76.81933356   284.58089927
 H      1   2   3     3.032395358831    72.17765463    67.71441677
 C      2   1   3     3.489175913195   114.72912095   127.02590865
 C      2   1   3     3.505126241714   117.60426550     7.09237684
 C      3   1   2     3.499166164656   113.72361734   308.56276361
 C      3   1   2     3.503239703167   119.12936476    66.06930220
 C      2   1   3     3.500576856961   117.72832566   246.63535294
 C      4   1   2     3.503855218440   114.11264768   204.74034705
 C      4   1   2     3.516327273759   117.83718494   325.26260291
 C      4   1   2     3.493683216527   115.83051127    89.85697818
 C     12   3   1     2.886783637726   119.88384734   189.26605475
 H     18  12   3     2.081511445081   112.54580186   303.45957020
 H     18  12   3     2.083057917031   110.08126905   184.04604546
 H     18  12   3     2.079736930200   111.81441973    65.21750759
 H     12   3   1     2.080242158792   104.85557880    64.83295816
 H     12   3   1     2.080852655970   104.65332529   313.92566366
 C      5   3   1     2.890124435483   119.25350839   205.31289832
 H     24   5   3     2.080334594147   111.60846423    64.43004255
 H     24   5   3     2.076177074582   113.02735536   303.26184555
 H     24   5   3     2.083418891700   110.15235224   183.21733669
 H      5   3   1     2.086243111769   104.49019474    80.46764168
 H      5   3   1     2.072844406995   106.17390920   329.91117108
 C     13   3   1     2.884485079495   115.20047538    55.49230617
 H     30  13   3     2.082282698416   110.90174468   185.18485760
 H     30  13   3     2.081526039533   111.95506093    65.44334194
 H     30  13   3     2.078711578042   110.62080707   305.06164117
 H     13   3   1     2.085644454834   104.52924059   295.27803580
 H     13   3   1     2.081607687029   110.08811297   181.09350357
 C     16   4   1     2.890799537778   119.42184815   154.23713583
 H     36  16   4     2.083311671163   110.21582958   177.86314479
 H     36  16   4     2.075696039402   112.89814042    57.84923807
 H     36  16   4     2.078775458743   111.60361974   296.69592680
 H     16   4   1     2.076401530225   105.77663540    29.99106979
 H     16   4   1     2.086381747422   105.00555044   279.07080986
 C     15   4   1     2.887465977523   120.45297219   173.27239801
 H     42  15   4     2.080174983665   111.83269756   294.44505548
 H     42  15   4     2.083265621475   110.09107471   175.52946901
 H     42  15   4     2.080900204726   112.53027194    56.16572236
 H     15   4   1     2.078631834894   105.19861057    48.76345128
 H     15   4   1     2.083780250027   104.12386208   297.73572021
 C     17   4   1     2.884545363076   116.52821614   298.96727477
 H     48  17   4     2.081037404550   112.17200404   297.02547322
 H     48  17   4     2.082381900993   110.45095411   177.29318859
 H     48  17   4     2.077182608646   110.59693330    57.50646712
 H     17   4   1     2.082575526221   108.74548444   173.57936034
 H     17   4   1     2.083597549771   104.13725973    59.70460319
 C     14   2   1     2.887335482859   112.72336849   292.74044968
 H     54  14   2     2.082254366935   111.46558958   166.34880187
 H     54  14   2     2.076516690689   110.80960303    45.55259633
 H     54  14   2     2.081111896287   111.45181408   286.34781348
 H     14   2   1     2.084259396613   109.94184728   168.89156520
 H     14   2   1     2.083137791829   105.78745810    53.86266706
 C     10   2   1     2.887256349484   116.92842191   177.81478212
 H     60  10   2     2.080982801083   111.94305028   296.30216369
 H     60  10   2     2.082554783151   110.54346767   176.93526106
 H     60  10   2     2.081013335479   112.30252500    57.21935189
 H     10   2   1     2.080460481600   105.67007152    53.68085980
 H     10   2   1     2.080921140764   105.67524585   302.61796770
 C     11   2   1     2.891701104678   113.44528022    76.42095279
 H     66  11   2     2.082392376756   111.12887577   195.79975795
 H     66  11   2     2.079520361656   111.42980401    76.10600193
 H     66  11   2     2.077835198952   111.20046981   316.24453768
 H     11   2   1     2.083395537867   105.61301155   314.96261243
 H     11   2   1     2.084770975052   109.80261719   200.28233000

---------------------
BASIS SET INFORMATION
---------------------
There are 4 groups of distinct atoms

 Group   1 Type Ru  : 7s6p5d1f contracted to 5s3p2d1f pattern {31111/411/41/1}
 Group   2 Type P   : 10s7p1d contracted to 4s3p1d pattern {5311/511/1}
 Group   3 Type C   : 7s4p1d contracted to 3s2p1d pattern {511/31/1}
 Group   4 Type H   : 4s1p contracted to 2s1p pattern {31/1}

Atom   0Ru   basis set group =>   1
Atom   1P    basis set group =>   2
Atom   2P    basis set group =>   2
Atom   3P    basis set group =>   2
Atom   4C    basis set group =>   3
Atom   5H    basis set group =>   4
Atom   6H    basis set group =>   4
Atom   7H    basis set group =>   4
Atom   8H    basis set group =>   4
Atom   9C    basis set group =>   3
Atom  10C    basis set group =>   3
Atom  11C    basis set group =>   3
Atom  12C    basis set group =>   3
Atom  13C    basis set group =>   3
Atom  14C    basis set group =>   3
Atom  15C    basis set group =>   3
Atom  16C    basis set group =>   3
Atom  17C    basis set group =>   3
Atom  18H    basis set group =>   4
Atom  19H    basis set group =>   4
Atom  20H    basis set group =>   4
Atom  21H    basis set group =>   4
Atom  22H    basis set group =>   4
Atom  23C    basis set group =>   3
Atom  24H    basis set group =>   4
Atom  25H    basis set group =>   4
Atom  26H    basis set group =>   4
Atom  27H    basis set group =>   4
Atom  28H    basis set group =>   4
Atom  29C    basis set group =>   3
Atom  30H    basis set group =>   4
Atom  31H    basis set group =>   4
Atom  32H    basis set group =>   4
Atom  33H    basis set group =>   4
Atom  34H    basis set group =>   4
Atom  35C    basis set group =>   3
Atom  36H    basis set group =>   4
Atom  37H    basis set group =>   4
Atom  38H    basis set group =>   4
Atom  39H    basis set group =>   4
Atom  40H    basis set group =>   4
Atom  41C    basis set group =>   3
Atom  42H    basis set group =>   4
Atom  43H    basis set group =>   4
Atom  44H    basis set group =>   4
Atom  45H    basis set group =>   4
Atom  46H    basis set group =>   4
Atom  47C    basis set group =>   3
Atom  48H    basis set group =>   4
Atom  49H    basis set group =>   4
Atom  50H    basis set group =>   4
Atom  51H    basis set group =>   4
Atom  52H    basis set group =>   4
Atom  53C    basis set group =>   3
Atom  54H    basis set group =>   4
Atom  55H    basis set group =>   4
Atom  56H    basis set group =>   4
Atom  57H    basis set group =>   4
Atom  58H    basis set group =>   4
Atom  59C    basis set group =>   3
Atom  60H    basis set group =>   4
Atom  61H    basis set group =>   4
Atom  62H    basis set group =>   4
Atom  63H    basis set group =>   4
Atom  64H    basis set group =>   4
Atom  65C    basis set group =>   3
Atom  66H    basis set group =>   4
Atom  67H    basis set group =>   4
Atom  68H    basis set group =>   4
Atom  69H    basis set group =>   4
Atom  70H    basis set group =>   4
---------------------------------
AUXILIARY/J BASIS SET INFORMATION
---------------------------------
There are 4 groups of distinct atoms

 Group   1 Type Ru  : 11s5p5d3f3g contracted to 8s5p5d2f3g pattern {41111111/11111/11111/21/111}
 Group   2 Type P   : 14s5p5d2f1g contracted to 8s4p3d1f1g pattern {71111111/2111/311/2/1}
 Group   3 Type C   : 12s5p4d2f1g contracted to 6s4p3d1f1g pattern {711111/2111/211/2/1}
 Group   4 Type H   : 5s2p1d contracted to 3s1p1d pattern {311/2/1}

Atom   0Ru   basis set group =>   1
Atom   1P    basis set group =>   2
Atom   2P    basis set group =>   2
Atom   3P    basis set group =>   2
Atom   4C    basis set group =>   3
Atom   5H    basis set group =>   4
Atom   6H    basis set group =>   4
Atom   7H    basis set group =>   4
Atom   8H    basis set group =>   4
Atom   9C    basis set group =>   3
Atom  10C    basis set group =>   3
Atom  11C    basis set group =>   3
Atom  12C    basis set group =>   3
Atom  13C    basis set group =>   3
Atom  14C    basis set group =>   3
Atom  15C    basis set group =>   3
Atom  16C    basis set group =>   3
Atom  17C    basis set group =>   3
Atom  18H    basis set group =>   4
Atom  19H    basis set group =>   4
Atom  20H    basis set group =>   4
Atom  21H    basis set group =>   4
Atom  22H    basis set group =>   4
Atom  23C    basis set group =>   3
Atom  24H    basis set group =>   4
Atom  25H    basis set group =>   4
Atom  26H    basis set group =>   4
Atom  27H    basis set group =>   4
Atom  28H    basis set group =>   4
Atom  29C    basis set group =>   3
Atom  30H    basis set group =>   4
Atom  31H    basis set group =>   4
Atom  32H    basis set group =>   4
Atom  33H    basis set group =>   4
Atom  34H    basis set group =>   4
Atom  35C    basis set group =>   3
Atom  36H    basis set group =>   4
Atom  37H    basis set group =>   4
Atom  38H    basis set group =>   4
Atom  39H    basis set group =>   4
Atom  40H    basis set group =>   4
Atom  41C    basis set group =>   3
Atom  42H    basis set group =>   4
Atom  43H    basis set group =>   4
Atom  44H    basis set group =>   4
Atom  45H    basis set group =>   4
Atom  46H    basis set group =>   4
Atom  47C    basis set group =>   3
Atom  48H    basis set group =>   4
Atom  49H    basis set group =>   4
Atom  50H    basis set group =>   4
Atom  51H    basis set group =>   4
Atom  52H    basis set group =>   4
Atom  53C    basis set group =>   3
Atom  54H    basis set group =>   4
Atom  55H    basis set group =>   4
Atom  56H    basis set group =>   4
Atom  57H    basis set group =>   4
Atom  58H    basis set group =>   4
Atom  59C    basis set group =>   3
Atom  60H    basis set group =>   4
Atom  61H    basis set group =>   4
Atom  62H    basis set group =>   4
Atom  63H    basis set group =>   4
Atom  64H    basis set group =>   4
Atom  65C    basis set group =>   3
Atom  66H    basis set group =>   4
Atom  67H    basis set group =>   4
Atom  68H    basis set group =>   4
Atom  69H    basis set group =>   4
Atom  70H    basis set group =>   4
-------------------------
ECP PARAMETER INFORMATION
-------------------------

 Group 1, Type Ru ECP Def2-ECP (replacing 28 core electrons, lmax=3)

Atom   0Ru   ECP group =>   1

------------------------------------------------------------------------------
                             ORCA STARTUP CALCULATIONS
                           -- RI-GTO INTEGRALS CHOSEN --
------------------------------------------------------------------------------
------------------------------------------------------------------------------
                   ___                                                        
                  /   \      - P O W E R E D   B Y -                         
                 /     \                                                     
                 |  |  |   _    _      __       _____    __    __             
                 |  |  |  | |  | |    /  \     |  _  \  |  |  /  |          
                  \  \/   | |  | |   /    \    | | | |  |  | /  /          
                 / \  \   | |__| |  /  /\  \   | |_| |  |  |/  /          
                |  |  |   |  __  | /  /__\  \  |    /   |      \           
                |  |  |   | |  | | |   __   |  |    \   |  |\   \          
                \     /   | |  | | |  |  |  |  | |\  \  |  | \   \       
                 \___/    |_|  |_| |__|  |__|  |_| \__\ |__|  \__/        
                                                                              
                      - O R C A' S   B I G   F R I E N D -                    
                                      &                                       
                       - I N T E G R A L  F E E D E R -                       
                                                                              
 v1 FN, 2020, v2 2021, v3 2022-2024                                           
------------------------------------------------------------------------------


----------------------
SHARK INTEGRAL PACKAGE
----------------------

Number of atoms                             ...     71
Number of basis functions                   ...    582
Number of shells                            ...    290
Maximum angular momentum                    ...      3
Integral batch strategy                     ... SHARK/LIBINT Hybrid
RI-J (if used) integral strategy            ... SPLIT-RIJ (Revised 2003 algorithm where possible)
Printlevel                                  ...      1
Contraction scheme used                     ... SEGMENTED contraction
Prescreening option                         ... SCHWARTZ
   Thresh                                   ... 1.000e-12
   Tcut                                     ... 1.000e-14
   Tpresel                                  ... 1.000e-14 
Coulomb Range Separation                    ... NOT USED
Exchange Range Separation                   ... NOT USED
Multipole approximations                    ... NOT USED
Finite Nucleus Model                        ... NOT USED
CABS basis                                  ... NOT available
Auxiliary Coulomb fitting basis             ... AVAILABLE
   # of basis functions in Aux-J            ...   1663
   # of shells in Aux-J                     ...    589
   Maximum angular momentum in Aux-J        ...      4
Auxiliary J/K fitting basis                 ... NOT available
Auxiliary Correlation fitting basis         ... NOT available
Auxiliary 'external' fitting basis          ... NOT available

Checking pre-screening integrals            ... done (  0.0 sec) Dimension = 290
   => SHARK Basis and OBASIS are compatible. Storing Pre-screening
Shell pair information
Shell pair cut-off parameter TPreSel        ...   1.0e-14
Total number of shell pairs                 ...     42195
Shell pairs after pre-screening             ...     33054
Total number of primitive shell pairs       ...    143310
Primitive shell pairs kept                  ...     72844
          la=0 lb=0:  12042 shell pairs
          la=1 lb=0:  12723 shell pairs
          la=1 lb=1:   3343 shell pairs
          la=2 lb=0:   2979 shell pairs
          la=2 lb=1:   1520 shell pairs
          la=2 lb=2:    181 shell pairs
          la=3 lb=0:    160 shell pairs
          la=3 lb=1:     82 shell pairs
          la=3 lb=2:     23 shell pairs
          la=3 lb=3:      1 shell pairs

Checking whether 4 symmetric matrices of dimension 582 fit in memory
:Max Core in MB      =   4096.00
 MB in use           =     42.95
 MB left             =   4053.05
 MB needed           =      5.18
 Data fit in memory  = YES
Calculating RI/J V-Matrix + Cholesky decomp.... done (  0.1 sec)
Calculating Nuclear repulsion               ... done (  0.0 sec) ENN=   3052.192551350340 Eh

Diagonalization of the overlap matrix:
Smallest eigenvalue                        ... 9.249e-04
Time for diagonalization                   ...    0.038 sec
Threshold for overlap eigenvalues          ... 1.000e-07
Number of eigenvalues below threshold      ... 0
Time for construction of square roots      ...    0.013 sec
Total time needed                          ...    0.053 sec

-------------------
DFT GRID GENERATION
-------------------

General Integration Accuracy     IntAcc      ... 4.959
Radial Grid Type                 RadialGrid  ... OptM3 with GC (2021)
Angular Grid (max. ang.)         AngularGrid ... 6 (Lebedev-590)
Angular grid pruning method      GridPruning ... 4 (adaptive)
Weight generation scheme         WeightScheme... mBecke (2022)
Basis function cutoff            BFCut       ... 1.0000e-12
Integration weight cutoff        WCut        ... 1.0000e-14
Partially contracted basis set               ... off
Rotationally invariant grid construction     ... off
Angular grids for H and He will be reduced by one unit

Total number of grid points                  ...   724454
Total number of batches                      ...    11350
Average number of points per batch           ...       63
Average number of grid points per atom       ...    10204
Grids setup in  11.3 sec
Initializing property integral containers    ... done (  0.0 sec)

SHARK setup successfully completed in  12.5 seconds

Maximum memory used throughout the entire STARTUP-calculation: 267.4 MB
-------------------------------------------------------------------------------
                                 ORCA GUESS
                   Start orbitals & Density for SCF / CASSCF
-------------------------------------------------------------------------------

------------
SCF SETTINGS
------------
Hamiltonian:
 Density Functional     Method          .... DFT(GTOs)
 Exchange Functional    Exchange        .... B88
   X-Alpha parameter    XAlpha          ....  0.666667
   Becke's b parameter  XBeta           ....  0.004200
 Correlation Functional Correlation     .... P86
 LDA part of GGA corr.  LDAOpt          .... PW91-LDA
 Gradients option       PostSCFGGA      .... off
   NL short-range parameter             ....  4.400000
 RI-approximation to the Coulomb term is turned on
   Number of AuxJ basis functions       .... 1663


General Settings:
 Integral files         IntName         .... 1b_pet3_Compound_1
 Hartree-Fock type      HFTyp           .... RHF
 Total Charge           Charge          ....    0
 Multiplicity           Mult            ....    1
 Number of Electrons    NEL             ....  218
 Basis Dimension        Dim             ....  582
 Nuclear Repulsion      ENuc            ....   3052.1925513503 Eh

Convergence Acceleration:
 AO-DIIS                CNVDIIS         .... on
   Start iteration      DIISMaxIt       ....    12
   Startup error        DIISStart       ....  0.200000
   # of expansion vecs  DIISMaxEq       ....     5
   Bias factor          DIISBfac        ....   1.050
   Max. coefficient     DIISMaxC        ....  10.000
 MO-DIIS                CNVKDIIS        .... off
 Trust-Rad. Augm. Hess. CNVTRAH         .... auto
   Auto Start mean grad. ratio tolernc. ....  1.125000
   Auto Start start iteration           ....    50
   Auto Start num. interpolation iter.  ....    10
   Max. Number of Micro iterations      ....    24
   Max. Number of Macro iterations      .... Maxiter - #DIIS iter
   Number of Davidson start vectors     ....     2
   Converg. threshold    (grad. norm)   ....   2.000e-06
   Grad. Scal. Fac. for Micro threshold ....   0.100
   Minimum threshold for Micro iter.    ....   1.000e-02
   NR start threshold (gradient norm)   ....   1.000e-04
   Initial trust radius                 ....   0.400
   Minimum AH scaling param. (alpha)    ....   1.000
   Maximum AH scaling param. (alpha)    .... 1000.000
   Quad. conv. algorithm                .... NR
   White noise on init. David. guess    .... on
   Maximum white noise                  ....   0.010
   Pseudo random numbers                .... off
   Inactive MOs                         .... canonical
   Orbital update algorithm             .... Taylor
   Preconditioner                       .... Diag
   Full preconditioner red. dimension   ....   250
 SOSCF                 CNVSOSCF           .... on
   Start iteration     SOSCFMaxIt         ....   150
   Startup grad/error  SOSCFStart         ....  0.003300
   Hessian update      SOSCFHessUp        .... L-BFGS
   Autom. constraints  SOSCFAutoConstrain .... off
 Level Shifting         CNVShift        .... on
   Level shift para.    LevelShift      ....    0.2500
   Turn off err/grad.   ShiftErr        ....    0.0010
 Zerner damping         CNVZerner       .... off
 Static damping         CNVDamp         .... on
   Fraction old density DampFac         ....    0.7000
   Max. Damping (<1)    DampMax         ....    0.9800
   Min. Damping (>=0)   DampMin         ....    0.0000
   Turn off err/grad.   DampErr         ....    0.1000

SCF Procedure:
 Maximum # iterations   MaxIter         ....   125
 SCF integral mode      SCFMode         .... Direct
   Integral package                     .... SHARK and LIBINT hybrid scheme
 Reset frequency        DirectResetFreq ....    20
 Integral Threshold     Thresh          ....  1.000e-12 Eh
 Primitive CutOff       TCut            ....  1.000e-14 Eh

Convergence Tolerance:
 Convergence Check Mode ConvCheckMode   .... Total+1el-Energy
 Convergence forced     ConvForced      .... 0
 Energy Change          TolE            ....  1.000e-09 Eh
 1-El. energy change                    ....  1.000e-06 Eh
 Orbital Gradient       TolG            ....  2.000e-06
 Orbital Rotation angle TolX            ....  2.000e-06
 DIIS Error             TolErr          ....  1.000e-08

------------------------------
INITIAL GUESS: MODEL POTENTIAL
------------------------------
Loading Hartree-Fock densities                     ... done
Atomic calculation to generate a density for atom 0 (Ru with ECP)
  Multiplicity assumed   :    5
  Atomic configuration   : 1s2 2s2 2p6 3s2 3p6 4s2 3d10 4p6 5s2 4d6 
  Number of open shells  : 1
  Command: /cluster/projects/nn14654k/ylvaos/orca_6_1_1_linux_x86-64_shared_openmpi418/orca 1b_pet3_Compound_1_atom44.inp "" > 1b_pet3_Compound_1_atom44.out
Returned from the atomic calculation with res=0
Calculating cut-offs                               ... done
Initializing the effective Hamiltonian             ... done
Setting up the integral package (SHARK)            ... done
Starting the Coulomb interaction                   ... done (   2.0 sec)
Making the grid                                    ... done (   1.0 sec)
Mapping shells                                     ... done
Starting the XC term evaluation                    ... done (   0.9 sec)
  promolecular density results
     # of electrons  =    245.976240442
     EX              =   -304.482507559
     EC              =    -10.198409212
     EX+EC           =   -314.680916771
Transforming the Hamiltonian                       ... done (   0.0 sec)
Diagonalizing the Hamiltonian                      ... done (   0.0 sec)
Back transforming the eigenvectors                 ... done (   0.0 sec)
Now organizing SCF variables                       ... done
                      ------------------
                      INITIAL GUESS DONE (   5.5 sec)
                      ------------------
             **** ENERGY FILE WAS UPDATED (1b_pet3_Compound_1.en.tmp) ****
Finished Guess after   5.6 sec
Maximum memory used throughout the entire GUESS-calculation: 68.5 MB

-------------------------------------------------------------------------------------------
                                      ORCA LEAN-SCF
                              memory conserving SCF solver
-------------------------------------------------------------------------------------------

----------------------------------------D-I-I-S--------------------------------------------
Iteration    Energy (Eh)           Delta-E    RMSDP     MaxDP     DIISErr   Damp  Time(sec)
-------------------------------------------------------------------------------------------
               ***  Starting incremental Fock matrix formation  ***
    1    -1833.1145402260067385     0.00e+00  1.71e-03  7.32e-02  4.59e-01  0.700  11.5
    2    -1833.4577880361371172    -3.43e-01  1.21e-03  4.16e-02  3.17e-01  0.700  10.0
    3    -1833.5777533518489690    -1.20e-01  6.03e-04  2.02e-02  2.20e-01  0.700   9.7
                               ***Turning on AO-DIIS***
    4    -1833.6439594529224451    -6.62e-02  2.71e-04  1.69e-02  1.54e-01  0.700   9.5
    5    -1833.6936389984398375    -4.97e-02  1.34e-04  1.19e-02  1.08e-01  0.700   9.1
    6    -1833.7287171198927354    -3.51e-02  8.24e-05  9.15e-03  7.57e-02  0.700   8.6
    7    -1833.7532082329094010    -2.45e-02  1.82e-04  1.96e-02  5.29e-02  0.000   8.5
                              *** Initializing SOSCF ***
---------------------------------------S-O-S-C-F--------------------------------------
Iteration    Energy (Eh)           Delta-E    RMSDP     MaxDP     MaxGrad    Time(sec)
--------------------------------------------------------------------------------------
    8    -1833.8100480259067808    -5.68e-02  2.04e-05  1.30e-03  6.25e-04     8.8
               *** Restarting incremental Fock matrix formation ***
    9    -1833.8100581367975792    -1.01e-05  2.49e-05  2.69e-03  2.29e-04    11.4
   10    -1833.8100383117421188     1.98e-05  2.02e-05  2.30e-03  1.00e-03     7.9
   11    -1833.8100586793466391    -2.04e-05  1.68e-05  8.89e-04  1.27e-04     7.7
   12    -1833.8100532415160160     5.44e-06  1.16e-05  6.92e-04  1.28e-04     7.9
   13    -1833.8100603442358079    -7.10e-06  2.05e-06  1.60e-04  8.34e-06     7.6
   14    -1833.8100602881709165     5.61e-08  1.39e-06  1.09e-04  1.79e-05     7.1
   15    -1833.8100603601965304    -7.20e-08  1.48e-07  6.96e-06  6.41e-07     6.8
   16    -1833.8100603601337752     6.28e-11  8.70e-08  4.29e-06  8.58e-07     6.4
                 **** Energy Check signals convergence ****

               *****************************************************
               *                     SUCCESS                       *
               *           SCF CONVERGED AFTER  16 CYCLES          *
               *****************************************************

             **** ENERGY FILE WAS UPDATED (1b_pet3_Compound_1.en.tmp) ****

----------------
TOTAL SCF ENERGY
----------------

Total Energy       :      -1833.81006036038298 Eh          -49900.50864 eV

Components:
Nuclear Repulsion  :       3052.19255135033973 Eh           83054.38173 eV
Electronic Energy  :      -4886.00261171072270 Eh         -132954.89036 eV
One Electron Energy:      -8623.99088828557069 Eh         -234670.72250 eV
Two Electron Energy:       3737.98827657484799 Eh          101715.83214 eV

Virial components:
Potential Energy   :      -3592.95349591133163 Eh          -97769.23512 eV
Kinetic Energy     :       1759.14343555094842 Eh           47868.72648 eV
Virial Ratio       :          2.04244487589839

DFT components:
N(Alpha)           :      109.000005034117 electrons
N(Beta)            :      109.000005034117 electrons
N(Total)           :      218.000010068235 electrons
E(X)               :     -187.712416694742 Eh       
E(C)               :       -8.263357587679 Eh       
E(XC)              :     -195.975774282420 Eh       

---------------
SCF CONVERGENCE
---------------

  Last Energy change         ...   -6.2755e-11  Tolerance :   1.0000e-09
  Last MAX-Density change    ...    4.2935e-06  Tolerance :   1.0000e-08
  Last RMS-Density change    ...    8.6975e-08  Tolerance :   1.0000e-09
  Last DIIS Error            ...    6.2467e-04  Tolerance :   1.0000e-08
  Last Orbital Gradient      ...    8.5829e-07  Tolerance :   2.0000e-06
  Last Orbital Rotation      ...    1.0928e-06  Tolerance :   2.0000e-06


----------------
ORBITAL ENERGIES
----------------

  NO   OCC          E(Eh)            E(eV) 
   0   2.0000     -76.357170     -2077.7842 
   1   2.0000     -76.354746     -2077.7183 
   2   2.0000     -76.351018     -2077.6168 
   3   2.0000      -9.909758      -269.6582 
   4   2.0000      -9.909395      -269.6483 
   5   2.0000      -9.908570      -269.6259 
   6   2.0000      -9.907930      -269.6085 
   7   2.0000      -9.907676      -269.6016 
   8   2.0000      -9.907467      -269.5959 
   9   2.0000      -9.907063      -269.5849 
  10   2.0000      -9.907031      -269.5840 
  11   2.0000      -9.906907      -269.5806 
  12   2.0000      -9.906658      -269.5739 
  13   2.0000      -9.906361      -269.5658 
  14   2.0000      -9.904649      -269.5192 
  15   2.0000      -9.904230      -269.5078 
  16   2.0000      -9.903932      -269.4997 
  17   2.0000      -9.903927      -269.4996 
  18   2.0000      -9.903716      -269.4938 
  19   2.0000      -9.902745      -269.4674 
  20   2.0000      -9.898802      -269.3601 
  21   2.0000      -6.319238      -171.9552 
  22   2.0000      -6.317464      -171.9069 
  23   2.0000      -6.314268      -171.8200 
  24   2.0000      -4.540988      -123.5666 
  25   2.0000      -4.540803      -123.5615 
  26   2.0000      -4.539269      -123.5198 
  27   2.0000      -4.538996      -123.5124 
  28   2.0000      -4.538342      -123.4946 
  29   2.0000      -4.536386      -123.4413 
  30   2.0000      -4.536056      -123.4324 
  31   2.0000      -4.535805      -123.4255 
  32   2.0000      -4.533047      -123.3505 
  33   2.0000      -2.831284       -77.0431 
  34   2.0000      -1.715829       -46.6901 
  35   2.0000      -1.710461       -46.5440 
  36   2.0000      -1.703911       -46.3658 
  37   2.0000      -0.716439       -19.4953 
  38   2.0000      -0.713882       -19.4257 
  39   2.0000      -0.712606       -19.3910 
  40   2.0000      -0.677066       -18.4239 
  41   2.0000      -0.676134       -18.3985 
  42   2.0000      -0.674500       -18.3541 
  43   2.0000      -0.670947       -18.2574 
  44   2.0000      -0.670644       -18.2491 
  45   2.0000      -0.668204       -18.1828 
  46   2.0000      -0.596752       -16.2385 
  47   2.0000      -0.595088       -16.1932 
  48   2.0000      -0.591631       -16.0991 
  49   2.0000      -0.554290       -15.0830 
  50   2.0000      -0.552211       -15.0264 
  51   2.0000      -0.550138       -14.9700 
  52   2.0000      -0.543510       -14.7897 
  53   2.0000      -0.541355       -14.7310 
  54   2.0000      -0.535006       -14.5582 
  55   2.0000      -0.471025       -12.8172 
  56   2.0000      -0.465977       -12.6799 
  57   2.0000      -0.464576       -12.6417 
  58   2.0000      -0.421367       -11.4660 
  59   2.0000      -0.416610       -11.3365 
  60   2.0000      -0.412364       -11.2210 
  61   2.0000      -0.411600       -11.2002 
  62   2.0000      -0.407800       -11.0968 
  63   2.0000      -0.406540       -11.0625 
  64   2.0000      -0.397637       -10.8202 
  65   2.0000      -0.394051       -10.7227 
  66   2.0000      -0.392981       -10.6936 
  67   2.0000      -0.372508       -10.1365 
  68   2.0000      -0.370292       -10.0762 
  69   2.0000      -0.364311        -9.9134 
  70   2.0000      -0.363294        -9.8857 
  71   2.0000      -0.362391        -9.8612 
  72   2.0000      -0.360872        -9.8198 
  73   2.0000      -0.359188        -9.7740 
  74   2.0000      -0.358967        -9.7680 
  75   2.0000      -0.357452        -9.7268 
  76   2.0000      -0.351444        -9.5633 
  77   2.0000      -0.344237        -9.3672 
  78   2.0000      -0.341450        -9.2913 
  79   2.0000      -0.339178        -9.2295 
  80   2.0000      -0.334982        -9.1153 
  81   2.0000      -0.331326        -9.0158 
  82   2.0000      -0.328454        -8.9377 
  83   2.0000      -0.325753        -8.8642 
  84   2.0000      -0.319908        -8.7051 
  85   2.0000      -0.318822        -8.6756 
  86   2.0000      -0.317319        -8.6347 
  87   2.0000      -0.314682        -8.5629 
  88   2.0000      -0.311211        -8.4685 
  89   2.0000      -0.310177        -8.4404 
  90   2.0000      -0.305258        -8.3065 
  91   2.0000      -0.301891        -8.2149 
  92   2.0000      -0.297856        -8.1051 
  93   2.0000      -0.295459        -8.0398 
  94   2.0000      -0.293246        -7.9796 
  95   2.0000      -0.276249        -7.5171 
  96   2.0000      -0.273352        -7.4383 
  97   2.0000      -0.272237        -7.4080 
  98   2.0000      -0.267598        -7.2817 
  99   2.0000      -0.266668        -7.2564 
 100   2.0000      -0.260235        -7.0814 
 101   2.0000      -0.257645        -7.0109 
 102   2.0000      -0.256234        -6.9725 
 103   2.0000      -0.246776        -6.7151 
 104   2.0000      -0.218200        -5.9375 
 105   2.0000      -0.211249        -5.7484 
 106   2.0000      -0.199806        -5.4370 
 107   2.0000      -0.155193        -4.2230 
 108   2.0000      -0.153845        -4.1863 
 109   0.0000      -0.000421        -0.0115 
 110   0.0000       0.018095         0.4924 
 111   0.0000       0.023603         0.6423 
 112   0.0000       0.024703         0.6722 
 113   0.0000       0.028494         0.7754 
 114   0.0000       0.032470         0.8836 
 115   0.0000       0.041985         1.1425 
 116   0.0000       0.046828         1.2742 
 117   0.0000       0.049709         1.3526 
 118   0.0000       0.051872         1.4115 
 119   0.0000       0.054405         1.4804 
*Only the first 10 virtual orbitals were printed.

                    ********************************
                    * MULLIKEN POPULATION ANALYSIS *
                    ********************************

-----------------------
MULLIKEN ATOMIC CHARGES
-----------------------
   0 Ru:   -0.690225
   1 P :    0.158406
   2 P :    0.214777
   3 P :    0.191822
   4 C :   -0.142924
   5 H :   -0.033525
   6 H :   -0.015902
   7 H :   -0.031592
   8 H :   -0.031007
   9 C :   -0.142671
  10 C :   -0.112327
  11 C :   -0.157558
  12 C :   -0.143205
  13 C :   -0.122641
  14 C :   -0.162978
  15 C :   -0.155993
  16 C :   -0.137342
  17 C :   -0.033093
  18 H :    0.030227
  19 H :    0.028226
  20 H :    0.039263
  21 H :    0.047006
  22 H :    0.076226
  23 C :   -0.027075
  24 H :    0.023997
  25 H :    0.023368
  26 H :    0.029909
  27 H :    0.059100
  28 H :    0.040122
  29 C :   -0.022518
  30 H :    0.025625
  31 H :    0.042210
  32 H :    0.041929
  33 H :    0.039896
  34 H :    0.030509
  35 C :   -0.023792
  36 H :    0.028308
  37 H :    0.022899
  38 H :    0.027916
  39 H :    0.054066
  40 H :    0.046801
  41 C :   -0.025814
  42 H :    0.038373
  43 H :    0.027196
  44 H :    0.034231
  45 H :    0.046807
  46 H :    0.076157
  47 C :   -0.015869
  48 H :    0.034994
  49 H :    0.024137
  50 H :    0.052979
  51 H :    0.028574
  52 H :    0.064998
  53 C :   -0.031130
  54 H :    0.027423
  55 H :    0.039365
  56 H :    0.026659
  57 H :    0.025664
  58 H :    0.051620
  59 C :   -0.034451
  60 H :    0.029380
  61 H :    0.033834
  62 H :    0.027714
  63 H :    0.064179
  64 H :    0.070516
  65 C :   -0.038873
  66 H :    0.029700
  67 H :    0.027121
  68 H :    0.047423
  69 H :    0.055156
  70 H :    0.025700
Sum of atomic charges:   -0.0000000

--------------------------------
MULLIKEN REDUCED ORBITAL CHARGES
--------------------------------
  0 Rus       :     2.544765  s :     2.544765
      pz      :     2.354239  p :     6.952788
      px      :     2.278624
      py      :     2.319925
      dz2     :     1.408174  d :     7.185928
      dxz     :     1.525273
      dyz     :     1.261601
      dx2y2   :     1.400242
      dxy     :     1.590638
      f0      :     0.000729  f :     0.006743
      f+1     :     0.001144
      f-1     :     0.000919
      f+2     :     0.001305
      f-2     :     0.000631
      f+3     :     0.000955
      f-3     :     0.001060

  1 P s       :     5.501485  s :     5.501485
      pz      :     2.987620  p :     9.075564
      px      :     2.944206
      py      :     3.143738
      dz2     :     0.071270  d :     0.264544
      dxz     :     0.040294
      dyz     :     0.040894
      dx2y2   :     0.033815
      dxy     :     0.078272

  2 P s       :     5.491367  s :     5.491367
      pz      :     2.934547  p :     9.048083
      px      :     3.168559
      py      :     2.944977
      dz2     :     0.030449  d :     0.245773
      dxz     :     0.058818
      dyz     :     0.061651
      dx2y2   :     0.041130
      dxy     :     0.053725

  3 P s       :     5.489987  s :     5.489987
      pz      :     2.952343  p :     9.063991
      px      :     3.001893
      py      :     3.109755
      dz2     :     0.070042  d :     0.254200
      dxz     :     0.035272
      dyz     :     0.040374
      dx2y2   :     0.067481
      dxy     :     0.041032

  4 C s       :     3.073579  s :     3.073579
      pz      :     1.036734  p :     3.041572
      px      :     1.001812
      py      :     1.003026
      dz2     :     0.004990  d :     0.027773
      dxz     :     0.003199
      dyz     :     0.006403
      dx2y2   :     0.005162
      dxy     :     0.008018

  5 H s       :     1.017671  s :     1.017671
      pz      :     0.004548  p :     0.015854
      px      :     0.007085
      py      :     0.004221

  6 H s       :     1.001974  s :     1.001974
      pz      :     0.006022  p :     0.013928
      px      :     0.003802
      py      :     0.004104

  7 H s       :     1.016756  s :     1.016756
      pz      :     0.005623  p :     0.014836
      px      :     0.003894
      py      :     0.005318

  8 H s       :     1.011163  s :     1.011163
      pz      :     0.007686  p :     0.019844
      px      :     0.006191
      py      :     0.005966

  9 C s       :     3.081797  s :     3.081797
      pz      :     1.032557  p :     3.033068
      px      :     1.032896
      py      :     0.967614
      dz2     :     0.007117  d :     0.027806
      dxz     :     0.003352
      dyz     :     0.005016
      dx2y2   :     0.004598
      dxy     :     0.007723

 10 C s       :     3.056732  s :     3.056732
      pz      :     1.003093  p :     3.027756
      px      :     1.034492
      py      :     0.990171
      dz2     :     0.006217  d :     0.027839
      dxz     :     0.003636
      dyz     :     0.007976
      dx2y2   :     0.003048
      dxy     :     0.006962

 11 C s       :     3.091359  s :     3.091359
      pz      :     1.021084  p :     3.037975
      px      :     0.978574
      py      :     1.038317
      dz2     :     0.002487  d :     0.028224
      dxz     :     0.007697
      dyz     :     0.007034
      dx2y2   :     0.005624
      dxy     :     0.005383

 12 C s       :     3.066710  s :     3.066710
      pz      :     1.002821  p :     3.048231
      px      :     1.033997
      py      :     1.011414
      dz2     :     0.003992  d :     0.028264
      dxz     :     0.006437
      dyz     :     0.006952
      dx2y2   :     0.007487
      dxy     :     0.003396

 13 C s       :     3.064877  s :     3.064877
      pz      :     1.027446  p :     3.029753
      px      :     1.004095
      py      :     0.998212
      dz2     :     0.004694  d :     0.028010
      dxz     :     0.005684
      dyz     :     0.005224
      dx2y2   :     0.005789
      dxy     :     0.006618

 14 C s       :     3.099355  s :     3.099355
      pz      :     1.027878  p :     3.035382
      px      :     1.033037
      py      :     0.974467
      dz2     :     0.008715  d :     0.028241
      dxz     :     0.001444
      dyz     :     0.004303
      dx2y2   :     0.008882
      dxy     :     0.004896

 15 C s       :     3.071347  s :     3.071347
      pz      :     1.022619  p :     3.056639
      px      :     1.006617
      py      :     1.027402
      dz2     :     0.006784  d :     0.028007
      dxz     :     0.004004
      dyz     :     0.004780
      dx2y2   :     0.007666
      dxy     :     0.004774

 16 C s       :     3.070726  s :     3.070726
      pz      :     1.033749  p :     3.038452
      px      :     0.996092
      py      :     1.008612
      dz2     :     0.007603  d :     0.028164
      dxz     :     0.003484
      dyz     :     0.003395
      dx2y2   :     0.007728
      dxy     :     0.005953

 17 C s       :     3.002378  s :     3.002378
      pz      :     1.010495  p :     3.004149
      px      :     0.980561
      py      :     1.013092
      dz2     :     0.002584  d :     0.026567
      dxz     :     0.006551
      dyz     :     0.007103
      dx2y2   :     0.004734
      dxy     :     0.005595

 18 H s       :     0.947152  s :     0.947152
      pz      :     0.008436  p :     0.022621
      px      :     0.007529
      py      :     0.006655

 19 H s       :     0.949239  s :     0.949239
      pz      :     0.006220  p :     0.022535
      px      :     0.005964
      py      :     0.010350

 20 H s       :     0.938103  s :     0.938103
      pz      :     0.009366  p :     0.022634
      px      :     0.004546
      py      :     0.008722

 21 H s       :     0.929855  s :     0.929855
      pz      :     0.008709  p :     0.023138
      px      :     0.004854
      py      :     0.009576

 22 H s       :     0.901092  s :     0.901092
      pz      :     0.008559  p :     0.022683
      px      :     0.008060
      py      :     0.006063

 23 C s       :     2.989102  s :     2.989102
      pz      :     1.013436  p :     3.011386
      px      :     0.991583
      py      :     1.006367
      dz2     :     0.004689  d :     0.026587
      dxz     :     0.002320
      dyz     :     0.007975
      dx2y2   :     0.005055
      dxy     :     0.006548

 24 H s       :     0.953195  s :     0.953195
      pz      :     0.011063  p :     0.022808
      px      :     0.004821
      py      :     0.006923

 25 H s       :     0.953518  s :     0.953518
      pz      :     0.005814  p :     0.023114
      px      :     0.009876
      py      :     0.007424

 26 H s       :     0.947657  s :     0.947657
      pz      :     0.009238  p :     0.022434
      px      :     0.004711
      py      :     0.008486

 27 H s       :     0.918226  s :     0.918226
      pz      :     0.011381  p :     0.022674
      px      :     0.004973
      py      :     0.006319

 28 H s       :     0.936388  s :     0.936388
      pz      :     0.005725  p :     0.023490
      px      :     0.010526
      py      :     0.007238

 29 C s       :     2.985462  s :     2.985462
      pz      :     0.993257  p :     3.010432
      px      :     1.022965
      py      :     0.994210
      dz2     :     0.003256  d :     0.026624
      dxz     :     0.007306
      dyz     :     0.006128
      dx2y2   :     0.007321
      dxy     :     0.002614

 30 H s       :     0.951976  s :     0.951976
      pz      :     0.009139  p :     0.022400
      px      :     0.008330
      py      :     0.004931

 31 H s       :     0.935025  s :     0.935025
      pz      :     0.006674  p :     0.022765
      px      :     0.005667
      py      :     0.010424

 32 H s       :     0.934461  s :     0.934461
      pz      :     0.005941  p :     0.023610
      px      :     0.012228
      py      :     0.005442

 33 H s       :     0.937697  s :     0.937697
      pz      :     0.006993  p :     0.022407
      px      :     0.005209
      py      :     0.010205

 34 H s       :     0.947019  s :     0.947019
      pz      :     0.006290  p :     0.022473
      px      :     0.010914
      py      :     0.005268

 35 C s       :     2.987228  s :     2.987228
      pz      :     0.999592  p :     3.010089
      px      :     0.999879
      py      :     1.010618
      dz2     :     0.008357  d :     0.026475
      dxz     :     0.002707
      dyz     :     0.002950
      dx2y2   :     0.007383
      dxy     :     0.005077

 36 H s       :     0.949237  s :     0.949237
      pz      :     0.012446  p :     0.022455
      px      :     0.004853
      py      :     0.005156

 37 H s       :     0.953952  s :     0.953952
      pz      :     0.006329  p :     0.023149
      px      :     0.004921
      py      :     0.011900

 38 H s       :     0.949096  s :     0.949096
      pz      :     0.005685  p :     0.022988
      px      :     0.010682
      py      :     0.006622

 39 H s       :     0.922901  s :     0.922901
      pz      :     0.005771  p :     0.023033
      px      :     0.004903
      py      :     0.012360

 40 H s       :     0.930416  s :     0.930416
      pz      :     0.005690  p :     0.022783
      px      :     0.010625
      py      :     0.006469

 41 C s       :     2.997780  s :     2.997780
      pz      :     1.012520  p :     3.001450
      px      :     1.011211
      py      :     0.977718
      dz2     :     0.007774  d :     0.026585
      dxz     :     0.001897
      dyz     :     0.004845
      dx2y2   :     0.007192
      dxy     :     0.004877

 42 H s       :     0.938999  s :     0.938999
      pz      :     0.012388  p :     0.022627
      px      :     0.005574
      py      :     0.004666

 43 H s       :     0.950269  s :     0.950269
      pz      :     0.006725  p :     0.022535
      px      :     0.006699
      py      :     0.009111

 44 H s       :     0.943102  s :     0.943102
      pz      :     0.005382  p :     0.022667
      px      :     0.012553
      py      :     0.004732

 45 H s       :     0.930120  s :     0.930120
      pz      :     0.005537  p :     0.023073
      px      :     0.012780
      py      :     0.004756

 46 H s       :     0.901165  s :     0.901165
      pz      :     0.012685  p :     0.022678
      px      :     0.005378
      py      :     0.004616

 47 C s       :     2.989047  s :     2.989047
      pz      :     1.011799  p :     3.000418
      px      :     0.973514
      py      :     1.015105
      dz2     :     0.007341  d :     0.026405
      dxz     :     0.003674
      dyz     :     0.003343
      dx2y2   :     0.007075
      dxy     :     0.004971

 48 H s       :     0.942069  s :     0.942069
      pz      :     0.012507  p :     0.022937
      px      :     0.005294
      py      :     0.005136

 49 H s       :     0.953367  s :     0.953367
      pz      :     0.006493  p :     0.022496
      px      :     0.010891
      py      :     0.005112

 50 H s       :     0.923040  s :     0.923040
      pz      :     0.006270  p :     0.023981
      px      :     0.006667
      py      :     0.011045

 51 H s       :     0.948864  s :     0.948864
      pz      :     0.006124  p :     0.022562
      px      :     0.005718
      py      :     0.010720

 52 H s       :     0.912476  s :     0.912476
      pz      :     0.012978  p :     0.022526
      px      :     0.004822
      py      :     0.004726

 53 C s       :     2.993811  s :     2.993811
      pz      :     1.008732  p :     3.010938
      px      :     0.963371
      py      :     1.038835
      dz2     :     0.005480  d :     0.026382
      dxz     :     0.004419
      dyz     :     0.004795
      dx2y2   :     0.004745
      dxy     :     0.006942

 54 H s       :     0.950154  s :     0.950154
      pz      :     0.011808  p :     0.022423
      px      :     0.004875
      py      :     0.005740

 55 H s       :     0.936668  s :     0.936668
      pz      :     0.008730  p :     0.023967
      px      :     0.004759
      py      :     0.010477

 56 H s       :     0.950695  s :     0.950695
      pz      :     0.006065  p :     0.022646
      px      :     0.007104
      py      :     0.009477

 57 H s       :     0.952079  s :     0.952079
      pz      :     0.006375  p :     0.022257
      px      :     0.004565
      py      :     0.011317

 58 H s       :     0.925876  s :     0.925876
      pz      :     0.006529  p :     0.022504
      px      :     0.007043
      py      :     0.008931

 59 C s       :     2.999158  s :     2.999158
      pz      :     1.007931  p :     3.008858
      px      :     1.016695
      py      :     0.984231
      dz2     :     0.006092  d :     0.026435
      dxz     :     0.004309
      dyz     :     0.005017
      dx2y2   :     0.003519
      dxy     :     0.007498

 60 H s       :     0.947867  s :     0.947867
      pz      :     0.011284  p :     0.022753
      px      :     0.006702
      py      :     0.004767

 61 H s       :     0.943660  s :     0.943660
      pz      :     0.006943  p :     0.022506
      px      :     0.008061
      py      :     0.007503

 62 H s       :     0.949429  s :     0.949429
      pz      :     0.005437  p :     0.022857
      px      :     0.011187
      py      :     0.006234

 63 H s       :     0.912993  s :     0.912993
      pz      :     0.005204  p :     0.022828
      px      :     0.011005
      py      :     0.006619

 64 H s       :     0.906784  s :     0.906784
      pz      :     0.011954  p :     0.022699
      px      :     0.006162
      py      :     0.004584

 65 C s       :     3.006961  s :     3.006961
      pz      :     0.996374  p :     3.005648
      px      :     0.995375
      py      :     1.013899
      dz2     :     0.007053  d :     0.026264
      dxz     :     0.002511
      dyz     :     0.006829
      dx2y2   :     0.004049
      dxy     :     0.005822

 66 H s       :     0.947854  s :     0.947854
      pz      :     0.004703  p :     0.022447
      px      :     0.011796
      py      :     0.005948

 67 H s       :     0.950078  s :     0.950078
      pz      :     0.004876  p :     0.022802
      px      :     0.007850
      py      :     0.010076

 68 H s       :     0.928805  s :     0.928805
      pz      :     0.009745  p :     0.023772
      px      :     0.005544
      py      :     0.008484

 69 H s       :     0.922434  s :     0.922434
      pz      :     0.005085  p :     0.022409
      px      :     0.008700
      py      :     0.008624

 70 H s       :     0.951983  s :     0.951983
      pz      :     0.008930  p :     0.022317
      px      :     0.005163
      py      :     0.008224



                     *******************************
                     * LOEWDIN POPULATION ANALYSIS *
                     *******************************

----------------------
LOEWDIN ATOMIC CHARGES
----------------------
   0 Ru:   -1.725389
   1 P :    0.899756
   2 P :    0.874700
   3 P :    0.884651
   4 C :   -0.178563
   5 H :    0.000186
   6 H :   -0.000893
   7 H :   -0.001591
   8 H :    0.012823
   9 C :   -0.171905
  10 C :   -0.177265
  11 C :   -0.175690
  12 C :   -0.177447
  13 C :   -0.176193
  14 C :   -0.179193
  15 C :   -0.181819
  16 C :   -0.170282
  17 C :   -0.079925
  18 H :    0.023031
  19 H :    0.030996
  20 H :    0.027149
  21 H :    0.034210
  22 H :    0.041720
  23 C :   -0.080308
  24 H :    0.024847
  25 H :    0.023434
  26 H :    0.031562
  27 H :    0.039370
  28 H :    0.033979
  29 C :   -0.074764
  30 H :    0.030118
  31 H :    0.021904
  32 H :    0.031183
[...]
 H     60  10   2     2.082554783151   110.54346767   176.93526106
 H     60  10   2     2.081013335479   112.30252500    57.21935189
 H     10   2   1     2.080460481600   105.67007152    53.68085980
 H     10   2   1     2.080921140764   105.67524585   302.61796770
 C     11   2   1     2.891701104678   113.44528022    76.42095279
 H     66  11   2     2.082392376756   111.12887577   195.79975795
 H     66  11   2     2.079520361656   111.42980401    76.10600193
 H     66  11   2     2.077835198952   111.20046981   316.24453768
 H     11   2   1     2.083395537867   105.61301155   314.96261243
 H     11   2   1     2.084770975052   109.80261719   200.28233000

---------------------
BASIS SET INFORMATION
---------------------
There are 4 groups of distinct atoms

 Group   1 Type Ru  : 9s8p7d3f1g contracted to 7s5p4d3f1g pattern {3111111/41111/4111/111/1}
 Group   2 Type P   : 20s14p4d2f1g contracted to 9s6p4d2f1g pattern {1031111111/821111/1111/11/1}
 Group   3 Type C   : 15s8p3d2f1g contracted to 7s4p3d2f1g pattern {8211111/5111/111/11/1}
 Group   4 Type H   : 7s3p2d1f contracted to 4s3p2d1f pattern {4111/111/11/1}

Atom   0Ru   basis set group =>   1
Atom   1P    basis set group =>   2
Atom   2P    basis set group =>   2
Atom   3P    basis set group =>   2
Atom   4C    basis set group =>   3
Atom   5H    basis set group =>   4
Atom   6H    basis set group =>   4
Atom   7H    basis set group =>   4
Atom   8H    basis set group =>   4
Atom   9C    basis set group =>   3
Atom  10C    basis set group =>   3
Atom  11C    basis set group =>   3
Atom  12C    basis set group =>   3
Atom  13C    basis set group =>   3
Atom  14C    basis set group =>   3
Atom  15C    basis set group =>   3
Atom  16C    basis set group =>   3
Atom  17C    basis set group =>   3
Atom  18H    basis set group =>   4
Atom  19H    basis set group =>   4
Atom  20H    basis set group =>   4
Atom  21H    basis set group =>   4
Atom  22H    basis set group =>   4
Atom  23C    basis set group =>   3
Atom  24H    basis set group =>   4
Atom  25H    basis set group =>   4
Atom  26H    basis set group =>   4
Atom  27H    basis set group =>   4
Atom  28H    basis set group =>   4
Atom  29C    basis set group =>   3
Atom  30H    basis set group =>   4
Atom  31H    basis set group =>   4
Atom  32H    basis set group =>   4
Atom  33H    basis set group =>   4
Atom  34H    basis set group =>   4
Atom  35C    basis set group =>   3
Atom  36H    basis set group =>   4
Atom  37H    basis set group =>   4
Atom  38H    basis set group =>   4
Atom  39H    basis set group =>   4
Atom  40H    basis set group =>   4
Atom  41C    basis set group =>   3
Atom  42H    basis set group =>   4
Atom  43H    basis set group =>   4
Atom  44H    basis set group =>   4
Atom  45H    basis set group =>   4
Atom  46H    basis set group =>   4
Atom  47C    basis set group =>   3
Atom  48H    basis set group =>   4
Atom  49H    basis set group =>   4
Atom  50H    basis set group =>   4
Atom  51H    basis set group =>   4
Atom  52H    basis set group =>   4
Atom  53C    basis set group =>   3
Atom  54H    basis set group =>   4
Atom  55H    basis set group =>   4
Atom  56H    basis set group =>   4
Atom  57H    basis set group =>   4
Atom  58H    basis set group =>   4
Atom  59C    basis set group =>   3
Atom  60H    basis set group =>   4
Atom  61H    basis set group =>   4
Atom  62H    basis set group =>   4
Atom  63H    basis set group =>   4
Atom  64H    basis set group =>   4
Atom  65C    basis set group =>   3
Atom  66H    basis set group =>   4
Atom  67H    basis set group =>   4
Atom  68H    basis set group =>   4
Atom  69H    basis set group =>   4
Atom  70H    basis set group =>   4
---------------------------------
AUXILIARY/J BASIS SET INFORMATION
---------------------------------
There are 4 groups of distinct atoms

 Group   1 Type Ru  : 11s5p5d3f3g contracted to 8s5p5d2f3g pattern {41111111/11111/11111/21/111}
 Group   2 Type P   : 14s5p5d2f1g contracted to 8s4p3d1f1g pattern {71111111/2111/311/2/1}
 Group   3 Type C   : 12s5p4d2f1g contracted to 6s4p3d1f1g pattern {711111/2111/211/2/1}
 Group   4 Type H   : 5s2p1d contracted to 3s1p1d pattern {311/2/1}

Atom   0Ru   basis set group =>   1
Atom   1P    basis set group =>   2
Atom   2P    basis set group =>   2
Atom   3P    basis set group =>   2
Atom   4C    basis set group =>   3
Atom   5H    basis set group =>   4
Atom   6H    basis set group =>   4
Atom   7H    basis set group =>   4
Atom   8H    basis set group =>   4
Atom   9C    basis set group =>   3
Atom  10C    basis set group =>   3
Atom  11C    basis set group =>   3
Atom  12C    basis set group =>   3
Atom  13C    basis set group =>   3
Atom  14C    basis set group =>   3
Atom  15C    basis set group =>   3
Atom  16C    basis set group =>   3
Atom  17C    basis set group =>   3
Atom  18H    basis set group =>   4
Atom  19H    basis set group =>   4
Atom  20H    basis set group =>   4
Atom  21H    basis set group =>   4
Atom  22H    basis set group =>   4
Atom  23C    basis set group =>   3
Atom  24H    basis set group =>   4
Atom  25H    basis set group =>   4
Atom  26H    basis set group =>   4
Atom  27H    basis set group =>   4
Atom  28H    basis set group =>   4
Atom  29C    basis set group =>   3
Atom  30H    basis set group =>   4
Atom  31H    basis set group =>   4
Atom  32H    basis set group =>   4
Atom  33H    basis set group =>   4
Atom  34H    basis set group =>   4
Atom  35C    basis set group =>   3
Atom  36H    basis set group =>   4
Atom  37H    basis set group =>   4
Atom  38H    basis set group =>   4
Atom  39H    basis set group =>   4
Atom  40H    basis set group =>   4
Atom  41C    basis set group =>   3
Atom  42H    basis set group =>   4
Atom  43H    basis set group =>   4
Atom  44H    basis set group =>   4
Atom  45H    basis set group =>   4
Atom  46H    basis set group =>   4
Atom  47C    basis set group =>   3
Atom  48H    basis set group =>   4
Atom  49H    basis set group =>   4
Atom  50H    basis set group =>   4
Atom  51H    basis set group =>   4
Atom  52H    basis set group =>   4
Atom  53C    basis set group =>   3
Atom  54H    basis set group =>   4
Atom  55H    basis set group =>   4
Atom  56H    basis set group =>   4
Atom  57H    basis set group =>   4
Atom  58H    basis set group =>   4
Atom  59C    basis set group =>   3
Atom  60H    basis set group =>   4
Atom  61H    basis set group =>   4
Atom  62H    basis set group =>   4
Atom  63H    basis set group =>   4
Atom  64H    basis set group =>   4
Atom  65C    basis set group =>   3
Atom  66H    basis set group =>   4
Atom  67H    basis set group =>   4
Atom  68H    basis set group =>   4
Atom  69H    basis set group =>   4
Atom  70H    basis set group =>   4
-------------------------
ECP PARAMETER INFORMATION
-------------------------

 Group 1, Type Ru ECP Def2-ECP (replacing 28 core electrons, lmax=3)

Atom   0Ru   ECP group =>   1

------------------------------------------------------------------------------
                             ORCA STARTUP CALCULATIONS
                           -- RI-GTO INTEGRALS CHOSEN --
------------------------------------------------------------------------------
------------------------------------------------------------------------------
                   ___                                                        
                  /   \      - P O W E R E D   B Y -                         
                 /     \                                                     
                 |  |  |   _    _      __       _____    __    __             
                 |  |  |  | |  | |    /  \     |  _  \  |  |  /  |          
                  \  \/   | |  | |   /    \    | | | |  |  | /  /          
                 / \  \   | |__| |  /  /\  \   | |_| |  |  |/  /          
                |  |  |   |  __  | /  /__\  \  |    /   |      \           
                |  |  |   | |  | | |   __   |  |    \   |  |\   \          
                \     /   | |  | | |  |  |  |  | |\  \  |  | \   \       
                 \___/    |_|  |_| |__|  |__|  |_| \__\ |__|  \__/        
                                                                              
                      - O R C A' S   B I G   F R I E N D -                    
                                      &                                       
                       - I N T E G R A L  F E E D E R -                       
                                                                              
 v1 FN, 2020, v2 2021, v3 2022-2024                                           
------------------------------------------------------------------------------


----------------------
SHARK INTEGRAL PACKAGE
----------------------

Number of atoms                             ...     71
Number of basis functions                   ...   2778
Number of shells                            ...    882
Maximum angular momentum                    ...      4
Integral batch strategy                     ... SHARK/LIBINT Hybrid
RI-J (if used) integral strategy            ... SPLIT-RIJ (Revised 2003 algorithm where possible)
Printlevel                                  ...      1
Contraction scheme used                     ... SEGMENTED contraction
Prescreening option                         ... SCHWARTZ
   Thresh                                   ... 1.000e-12
   Tcut                                     ... 1.000e-14
   Tpresel                                  ... 1.000e-14 
Coulomb Range Separation                    ... NOT USED
Exchange Range Separation                   ... NOT USED
Multipole approximations                    ... NOT USED
Finite Nucleus Model                        ... NOT USED
CABS basis                                  ... NOT available
Auxiliary Coulomb fitting basis             ... AVAILABLE
   # of basis functions in Aux-J            ...   1663
   # of shells in Aux-J                     ...    589
   Maximum angular momentum in Aux-J        ...      4
Auxiliary J/K fitting basis                 ... NOT available
Auxiliary Correlation fitting basis         ... NOT available
Auxiliary 'external' fitting basis          ... NOT available

Checking pre-screening integrals            ... done (  0.0 sec) Dimension = 882
   => SHARK Basis and OBASIS are compatible. Storing Pre-screening
Shell pair information
Shell pair cut-off parameter TPreSel        ...   1.0e-14
Total number of shell pairs                 ...    389403
Shell pairs after pre-screening             ...    238385
Total number of primitive shell pairs       ...    859947
Primitive shell pairs kept                  ...    376199
          la=0 lb=0:  41996 shell pairs
          la=1 lb=0:  56736 shell pairs
          la=1 lb=1:  19483 shell pairs
          la=2 lb=0:  35500 shell pairs
          la=2 lb=1:  24353 shell pairs
          la=2 lb=2:   7461 shell pairs
          la=3 lb=0:  18959 shell pairs
          la=3 lb=1:  12984 shell pairs
          la=3 lb=2:   7696 shell pairs
          la=3 lb=3:   2041 shell pairs
          la=4 lb=0:   4752 shell pairs
          la=4 lb=1:   3247 shell pairs
          la=4 lb=2:   1965 shell pairs
          la=4 lb=3:   1061 shell pairs
          la=4 lb=4:    151 shell pairs

Checking whether 4 symmetric matrices of dimension 2778 fit in memory
:Max Core in MB      =   4096.00
 MB in use           =    280.81
 MB left             =   3815.19
 MB needed           =    117.80
 Data fit in memory  = YES
Calculating RI/J V-Matrix + Cholesky decomp.... done (  0.1 sec)
Calculating Nuclear repulsion               ... done (  0.0 sec) ENN=   3052.192551350340 Eh

Diagonalization of the overlap matrix:
Smallest eigenvalue                        ... 2.857e-06
Time for diagonalization                   ...    1.650 sec
Threshold for overlap eigenvalues          ... 1.000e-07
Number of eigenvalues below threshold      ... 0
Time for construction of square roots      ...    0.961 sec
Total time needed                          ...    2.620 sec

-------------------
DFT GRID GENERATION
-------------------

General Integration Accuracy     IntAcc      ... 4.959
Radial Grid Type                 RadialGrid  ... OptM3 with GC (2021)
Angular Grid (max. ang.)         AngularGrid ... 6 (Lebedev-590)
Angular grid pruning method      GridPruning ... 4 (adaptive)
Weight generation scheme         WeightScheme... mBecke (2022)
Basis function cutoff            BFCut       ... 1.0000e-12
Integration weight cutoff        WCut        ... 1.0000e-14
Partially contracted basis set               ... off
Rotationally invariant grid construction     ... off
Angular grids for H and He will be reduced by one unit
Diffuse basis detected: some atoms will have their outermost
                        angular grid increased by 1.

Total number of grid points                  ...   731491
Total number of batches                      ...    11463
Average number of points per batch           ...       63
Average number of grid points per atom       ...    10303
Grids setup in  14.7 sec
Initializing property integral containers    ... done (  0.0 sec)

SHARK setup successfully completed in  30.2 seconds

Maximum memory used throughout the entire STARTUP-calculation: 1118.7 MB
-------------------------------------------------------------------------------
                                 ORCA GUESS
                   Start orbitals & Density for SCF / CASSCF
-------------------------------------------------------------------------------

------------
SCF SETTINGS
------------
Hamiltonian:
 Density Functional     Method          .... DFT(GTOs)
 Exchange Functional    Exchange        .... B88
   X-Alpha parameter    XAlpha          ....  0.666667
   Becke's b parameter  XBeta           ....  0.004200
 Correlation Functional Correlation     .... P86
 LDA part of GGA corr.  LDAOpt          .... PW91-LDA
 Gradients option       PostSCFGGA      .... off
   NL short-range parameter             ....  4.400000
 RI-approximation to the Coulomb term is turned on
   Number of AuxJ basis functions       .... 1663


General Settings:
 Integral files         IntName         .... 1b_pet3_Compound_3
 Hartree-Fock type      HFTyp           .... RHF
 Total Charge           Charge          ....    0
 Multiplicity           Mult            ....    1
 Number of Electrons    NEL             ....  218
 Basis Dimension        Dim             .... 2778
 Nuclear Repulsion      ENuc            ....   3052.1925513503 Eh

Convergence Acceleration:
 AO-DIIS                CNVDIIS         .... on
   Start iteration      DIISMaxIt       ....    12
   Startup error        DIISStart       ....  0.200000
   # of expansion vecs  DIISMaxEq       ....     5
   Bias factor          DIISBfac        ....   1.050
   Max. coefficient     DIISMaxC        ....  10.000
 MO-DIIS                CNVKDIIS        .... off
 Trust-Rad. Augm. Hess. CNVTRAH         .... auto
   Auto Start mean grad. ratio tolernc. ....  1.125000
   Auto Start start iteration           ....     1
   Auto Start num. interpolation iter.  ....    10
   Max. Number of Micro iterations      ....    24
   Max. Number of Macro iterations      .... Maxiter - #DIIS iter
   Number of Davidson start vectors     ....     2
   Converg. threshold    (grad. norm)   ....   2.000e-06
   Grad. Scal. Fac. for Micro threshold ....   0.100
   Minimum threshold for Micro iter.    ....   1.000e-02
   NR start threshold (gradient norm)   ....   1.000e-04
   Initial trust radius                 ....   0.400
   Minimum AH scaling param. (alpha)    ....   1.000
   Maximum AH scaling param. (alpha)    .... 1000.000
   Quad. conv. algorithm                .... NR
   White noise on init. David. guess    .... on
   Maximum white noise                  ....   0.010
   Pseudo random numbers                .... off
   Inactive MOs                         .... canonical
   Orbital update algorithm             .... Taylor
   Preconditioner                       .... Diag
   Full preconditioner red. dimension   ....   250
 SOSCF                 CNVSOSCF           .... on
   Start iteration     SOSCFMaxIt         ....   150
   Startup grad/error  SOSCFStart         ....  0.003300
   Hessian update      SOSCFHessUp        .... L-BFGS
   Autom. constraints  SOSCFAutoConstrain .... off
 Level Shifting         CNVShift        .... on
   Level shift para.    LevelShift      ....    0.2500
   Turn off err/grad.   ShiftErr        ....    0.0010
 Zerner damping         CNVZerner       .... off
 Static damping         CNVDamp         .... on
   Fraction old density DampFac         ....    0.7000
   Max. Damping (<1)    DampMax         ....    0.9800
   Min. Damping (>=0)   DampMin         ....    0.0000
   Turn off err/grad.   DampErr         ....    0.1000

SCF Procedure:
 Maximum # iterations   MaxIter         ....   125
 SCF integral mode      SCFMode         .... Direct
   Integral package                     .... SHARK and LIBINT hybrid scheme
 Reset frequency        DirectResetFreq ....    20
 Integral Threshold     Thresh          ....  1.000e-12 Eh
 Primitive CutOff       TCut            ....  1.000e-14 Eh

Convergence Tolerance:
 Convergence Check Mode ConvCheckMode   .... Total+1el-Energy
 Convergence forced     ConvForced      .... 0
 Energy Change          TolE            ....  1.000e-09 Eh
 1-El. energy change                    ....  1.000e-06 Eh
 Orbital Gradient       TolG            ....  2.000e-06
 Orbital Rotation angle TolX            ....  2.000e-06
 DIIS Error             TolErr          ....  1.000e-08

---------------------
INITIAL GUESS: MOREAD
---------------------
Guess MOs are being read from file: 1b_pet3_Compound_2.gbw
Input Geometry matches current geometry (good)
Atom 0: N(Shells)= 20 and 14 - projection required
Input basis set needs projection
NBasis(read)= 1003
NBasis(calc)= 2778
Basis set overlap was calculated
Using GuessMode=FMatrix for the initial guess
C*T matrix was formed
Effective Fockian was calculated
Effective Fockian was diagonalized
Initial density was built
                      ------------------
                      INITIAL GUESS DONE (   3.9 sec)
                      ------------------
             **** ENERGY FILE WAS UPDATED (1b_pet3_Compound_3.en.tmp) ****
Finished Guess after   4.7 sec
Maximum memory used throughout the entire GUESS-calculation: 599.9 MB

-------------------------------------------------------------------------------------------
                                      ORCA LEAN-SCF
                              memory conserving SCF solver
-------------------------------------------------------------------------------------------

----------------------------------------D-I-I-S--------------------------------------------
Iteration    Energy (Eh)           Delta-E    RMSDP     MaxDP     DIISErr   Damp  Time(sec)
-------------------------------------------------------------------------------------------
               ***  Starting incremental Fock matrix formation  ***
    1    -1835.0456460278869599     0.00e+00  4.44e-04  1.56e-01  8.85e-02  0.700 153.7
    2    -1835.0617594900782024    -1.61e-02  3.60e-04  1.44e-01  6.25e-02  0.700 106.4
                               ***Turning on AO-DIIS***
    3    -1835.0731642110836219    -1.14e-02  2.64e-04  1.08e-01  4.41e-02  0.700 102.5
    4    -1835.0811878014615104    -8.02e-03  6.26e-04  2.60e-01  3.08e-02  0.000 102.5
                              *** Initializing SOSCF ***
---------------------------------------S-O-S-C-F--------------------------------------
Iteration    Energy (Eh)           Delta-E    RMSDP     MaxDP     MaxGrad    Time(sec)
--------------------------------------------------------------------------------------
    5    -1835.1000521824894349    -1.89e-02  7.28e-06  2.17e-03  1.12e-03   112.7
               *** Restarting incremental Fock matrix formation ***
    6    -1835.1000416513684286     1.05e-05  1.50e-05  1.00e-02  5.20e-04   133.4
